 *** BFO optimization checkpointing file 04-May-2018
 *** (c) Ph. Toint and M. Porcelli
     banana_withmax   objname     
                  0   maximize    
                  2   verbose     
 -9.99999990000e+24   ftarget     
 1.000000000000e-04   epsilon     
 0.000000000000e+00   bfgs_finish 
                  5   term_basis  
                100   maxeval     
 1.00000000000e+02   neval       
 1.424800000000e+00   alpha       
 1.997000000000e-01   beta        
 2.359900000000e+00   gamma       
 1.000000000000e-04   eta         
 1.500000000000e+00   zeta        
                 11   inertia     
                  1   stype       
                 53   rseed       
 1.255000000000e+00   iota        
                  1   min1d       
 2.000000000000e+00   kappa       
 1.000000000000e-01   lambda      
 5.000000000000e+01   mu          
                  0   used_trained
                  2   n           
                 cc   xtype       
                  0   use_lattice 
                  0   categorical 
           bfo_none   ssfname     
                100   nfcalls     
 +1.936000000000e+01    +9.474409027404e+01    +9.000000000000e+02    +3.136000000000e+01    +2.180938240000e+02    +3.991589130527e+00    +2.630346455039e+01    +4.340523990871e+01    +9.551288551079e+00    +7.893578285101e+00    +5.212102992412e+00    +5.214736088999e+00    +4.653836953216e+00    +4.307122573501e+00    +3.976734638410e+00    +4.150620226955e+00    +4.012408570835e+00    +4.007318536008e+00    +4.015546386686e+00    +3.994666871431e+00    +3.967709241306e+00    +3.983066498520e+00    +3.969157504969e+00    +3.976396313892e+00    +3.964617886682e+00    +4.005076711693e+00    +3.957483127719e+00    +3.977692274373e+00    +4.003488015251e+00    +3.998396711530e+00    +3.941427544837e+00    +4.045636043832e+00    +3.965147946709e+00    +3.973844017922e+00    +3.967043618798e+00    +3.951564188030e+00    +3.935796408873e+00    +3.945331007854e+00    +3.936514484939e+00    +3.943704838143e+00    +3.932595432289e+00    +3.959028736757e+00    +3.926548403040e+00    +3.941312112951e+00    +3.952419325093e+00    +3.958361599758e+00    +3.915118819268e+00    +3.988117547298e+00    +3.921125003318e+00    +3.938502742455e+00    +3.937350440695e+00    +3.923247843523e+00    +3.910057705105e+00    +3.918219585478e+00    +3.908242333110e+00    +3.916723294170e+00    +3.899758340418e+00    +3.910272005211e+00    +3.889921992499e+00    +3.905218889323e+00    +3.874946435567e+00    +3.894828305488e+00    +3.857276305399e+00    +3.888940808631e+00    +3.825433793905e+00    +3.863319781561e+00    +3.793118247381e+00    +3.844274697003e+00    +3.745916643699e+00    +3.807885717836e+00    +3.692982997852e+00    +3.786328612663e+00    +3.587000922232e+00    +3.708683309686e+00    +3.426953836003e+00    +3.649929238842e+00    +3.073760422879e+00    +3.552109663214e+00    +2.466660851888e+00    +3.306493218641e+00    +2.747936231083e+00    +1.766396324156e+01    +2.942957584246e+01    +3.379586480820e+00    +3.365537734860e+00    +2.642756552347e+00    +2.358371547425e+00    +2.525257974970e+00    +2.321230829279e+00    +2.417526298711e+00    +2.649447218609e+00    +3.590466425907e+00    +4.998370072372e+00    +2.765420212425e+00    +2.145336820517e+00    +2.221562917740e+00    +2.094308387751e+00    +2.175063175870e+00    +2.076345123891e+00    +2.122107726304e+00   
+7.543671960789e-02   +7.543671960789e-02   
+1.036800000000e+00   +1.036800000000e+00   
+1.000000000000e+00   +1.000000000000e+00   
+1.000000000000e+00   +1.000000000000e+00   
-2.000000000000e+00   -2.000000000000e+00   
+2.000000000000e+00   +2.000000000000e+00   
                  1   nh          
-4.135225615208e-01   +1.430189339809e-01   
+2.076345123891e+00   +7.543671960789e-02   +7.543671960789e-02   
                  0    training history length
                  0   fstar length
                  0   tpval length
