 *** BFO optimization checkpointing file 02-May-2018
 *** (c) Ph. Toint and M. Porcelli
           kleedfcn   objname     
                  0   maximize    
                  2   verbose     
 -9.99999990000e+24   ftarget     
 1.000000000000e-04   epsilon     
 0.000000000000e+00   bfgs_finish 
                  5   term_basis  
                100   maxeval     
 1.00000000000e+02   neval       
 1.424800000000e+00   alpha       
 1.997000000000e-01   beta        
 2.359900000000e+00   gamma       
 1.000000000000e-04   eta         
 1.500000000000e+00   zeta        
                 11   inertia     
                  1   stype       
                 53   rseed       
 1.255000000000e+00   iota        
                  1   min1d       
 2.000000000000e+00   kappa       
 1.000000000000e-01   lambda      
 5.000000000000e+01   mu          
                  0   used_trained
                 42   n           
 cccccccccccccccccccccccccccccccccccccccccc   xtype       
                  0   use_lattice 
                  0   categorical 
           bfo_none   ssfname     
                100   nfcalls     
 +9.038635747670e-01    NaN    NaN    NaN    +8.962343897806e-01    NaN    NaN    NaN    NaN    NaN    +9.000185928531e-01    +8.913183331791e-01    NaN    NaN    NaN    NaN    NaN    +9.000185928531e-01    NaN    +8.841667704079e-01    NaN    NaN    NaN    NaN    NaN    +9.019988382946e-01    NaN    +9.470831734360e-01    +8.964101584191e-01    NaN    +8.796662542878e-01    NaN    NaN    NaN    NaN    +8.933296157828e-01    +9.024025314926e-01    NaN    +9.487755696486e-01    +8.699286435934e-01    NaN    +8.951228944134e-01    NaN    NaN    +8.601076848417e-01    NaN    +8.832228790728e-01    NaN    NaN    +8.697772360426e-01    NaN    +9.704045889558e-01    NaN    NaN    NaN    NaN    +8.602027616419e-01    NaN    +8.611495661819e-01    NaN    NaN    NaN    NaN    NaN    +8.113517194028e-01    NaN    +8.069292431480e-01    NaN    NaN    NaN    NaN    NaN    NaN    NaN    NaN    +8.465158135085e-01    NaN    +8.673085229713e-01    NaN    +8.392375134764e-01    NaN    NaN    NaN    NaN    NaN    NaN    +9.210983764555e-01    +8.069292431480e-01    +8.252435221316e-01    NaN    NaN    NaN    NaN    NaN    NaN    NaN    NaN    NaN    NaN    NaN   
+1.875700000000e+00   +1.794100000000e+00   +1.806700000000e+00   +1.000000000000e+00   +1.000000000000e+00   +1.000000000000e+00   +1.000000000000e+00   +1.000000000000e+00   +1.711200000000e+00   +1.735000000000e+00   +1.737800000000e+00   +1.746700000000e+00   +1.775100000000e+00   +1.789700000000e+00   +1.000000000000e+00   +2.359900000000e+00   +2.359900000000e+00   +2.359900000000e+00   +2.359900000000e+00   +1.255200000000e+00   +2.359900000000e+00   +2.359900000000e+00   +2.359900000000e+00   +1.000000000000e+00   +2.359900000000e+00   +2.359900000000e+00   +2.359900000000e+00   +2.359900000000e+00   +1.000000000000e+00   +1.000000000000e+00   +2.359900000000e+00   +1.291300000000e+00   +2.359900000000e+00   +1.255200000000e+00   +1.212500000000e+00   +2.359900000000e+00   +1.000000000000e+00   +1.000000000000e+00   +2.359900000000e+00   +2.359900000000e+00   +1.000000000000e+00   +2.359900000000e+00   
+1.036800000000e+00   +1.036800000000e+00   +1.036800000000e+00   +1.036800000000e+00   +1.036800000000e+00   +1.036800000000e+00   +1.036800000000e+00   +1.036800000000e+00   +1.036800000000e+00   +1.036800000000e+00   +1.036800000000e+00   +1.036800000000e+00   +1.036800000000e+00   +1.036800000000e+00   +1.036800000000e+00   +1.036800000000e+00   +1.036800000000e+00   +1.036800000000e+00   +1.036800000000e+00   +1.036800000000e+00   +1.036800000000e+00   +1.036800000000e+00   +1.036800000000e+00   +1.036800000000e+00   +1.036800000000e+00   +1.036800000000e+00   +1.036800000000e+00   +1.036800000000e+00   +1.036800000000e+00   +1.036800000000e+00   +1.036800000000e+00   +1.036800000000e+00   +1.036800000000e+00   +1.036800000000e+00   +1.036800000000e+00   +1.036800000000e+00   +1.036800000000e+00   +1.036800000000e+00   +1.036800000000e+00   +1.036800000000e+00   +1.036800000000e+00   +1.036800000000e+00   
+1.000000000000e+00   +1.000000000000e+00   +1.000000000000e+00   +1.000000000000e+00   +1.000000000000e+00   +1.000000000000e+00   +1.000000000000e+00   +1.000000000000e+00   +1.000000000000e+00   +1.000000000000e+00   +1.000000000000e+00   +1.000000000000e+00   +1.000000000000e+00   +1.000000000000e+00   +1.000000000000e+00   +1.000000000000e+00   +1.000000000000e+00   +1.000000000000e+00   +1.000000000000e+00   +1.000000000000e+00   +1.000000000000e+00   +1.000000000000e+00   +1.000000000000e+00   +1.000000000000e+00   +1.000000000000e+00   +1.000000000000e+00   +1.000000000000e+00   +1.000000000000e+00   +1.000000000000e+00   +1.000000000000e+00   +1.000000000000e+00   +1.000000000000e+00   +1.000000000000e+00   +1.000000000000e+00   +1.000000000000e+00   +1.000000000000e+00   +1.000000000000e+00   +1.000000000000e+00   +1.000000000000e+00   +1.000000000000e+00   +1.000000000000e+00   +1.000000000000e+00   
+1.000000000000e+00   +1.000000000000e+00   +1.000000000000e+00   +1.000000000000e+00   +1.000000000000e+00   +1.000000000000e+00   +1.000000000000e+00   +1.000000000000e+00   +1.000000000000e+00   +1.000000000000e+00   +1.000000000000e+00   +1.000000000000e+00   +1.000000000000e+00   +1.000000000000e+00   +1.000000000000e+00   +1.000000000000e+00   +1.000000000000e+00   +1.000000000000e+00   +1.000000000000e+00   +1.000000000000e+00   +1.000000000000e+00   +1.000000000000e+00   +1.000000000000e+00   +1.000000000000e+00   +1.000000000000e+00   +1.000000000000e+00   +1.000000000000e+00   +1.000000000000e+00   +1.000000000000e+00   +1.000000000000e+00   +1.000000000000e+00   +1.000000000000e+00   +1.000000000000e+00   +1.000000000000e+00   +1.000000000000e+00   +1.000000000000e+00   +1.000000000000e+00   +1.000000000000e+00   +1.000000000000e+00   +1.000000000000e+00   +1.000000000000e+00   +1.000000000000e+00   
-2.813550000000e+00   -2.691150000000e+00   -2.710050000000e+00   -8.861000000000e-01   -2.528000000000e-01   -5.461000000000e-01   -4.310000000000e-01   -3.126000000000e-01   +8.556000000000e-01   +8.675000000000e-01   +8.689000000000e-01   +8.733500000000e-01   +8.875500000000e-01   +8.948500000000e-01   -5.000000000000e-01   +1.557050000000e+00   +1.502350000000e+00   +3.112500000000e+00   -6.093150000000e+00   +6.276000000000e-01   +1.836900000000e+00   -6.436050000000e+00   +2.519900000000e+00   -5.000000000000e-01   +2.517750000000e+00   +1.235150000000e+00   +1.272250000000e+00   +1.218550000000e+00   -5.000000000000e-01   -5.000000000000e-01   -4.507050000000e+00   +6.456500000000e-01   +3.112500000000e+00   +6.276000000000e-01   +6.062500000000e-01   +1.854650000000e+00   -5.000000000000e-01   -5.000000000000e-01   +2.517750000000e+00   +2.520100000000e+00   -5.000000000000e-01   +1.218550000000e+00   
-9.378500000000e-01   -8.970500000000e-01   -9.033500000000e-01   +1.139000000000e-01   +7.472000000000e-01   +4.539000000000e-01   +5.690000000000e-01   +6.874000000000e-01   +2.566800000000e+00   +2.602500000000e+00   +2.606700000000e+00   +2.620050000000e+00   +2.662650000000e+00   +2.684550000000e+00   +5.000000000000e-01   +4.671150000000e+00   +4.507050000000e+00   +9.337500000000e+00   -2.031050000000e+00   +1.882800000000e+00   +5.510700000000e+00   -2.145350000000e+00   +7.559700000000e+00   +5.000000000000e-01   +7.553250000000e+00   +3.705450000000e+00   +3.816750000000e+00   +3.655650000000e+00   +5.000000000000e-01   +5.000000000000e-01   -1.502350000000e+00   +1.936950000000e+00   +9.337500000000e+00   +1.882800000000e+00   +1.818750000000e+00   +5.563950000000e+00   +5.000000000000e-01   +5.000000000000e-01   +7.553250000000e+00   +7.560300000000e+00   +5.000000000000e-01   +3.655650000000e+00   
                  1   nh          
-2.813550000000e+00   -2.691150000000e+00   -2.710050000000e+00   -8.861000000000e-01   -2.528000000000e-01   -5.461000000000e-01   -4.310000000000e-01   +1.874000000000e-01   +1.711200000000e+00   +1.735000000000e+00   +1.737800000000e+00   +1.746700000000e+00   +8.875500000000e-01   +1.789700000000e+00   +0.000000000000e+00   +3.114100000000e+00   +3.004700000000e+00   +6.225000000000e+00   -4.062100000000e+00   +1.255200000000e+00   +3.673800000000e+00   -4.290700000000e+00   +5.039800000000e+00   +0.000000000000e+00   +5.035500000000e+00   +2.470300000000e+00   +2.544500000000e+00   +2.437100000000e+00   +0.000000000000e+00   +0.000000000000e+00   -3.004700000000e+00   +1.291300000000e+00   +6.225000000000e+00   +1.255200000000e+00   +1.212500000000e+00   +3.709300000000e+00   +0.000000000000e+00   +0.000000000000e+00   +5.035500000000e+00   +5.040200000000e+00   +0.000000000000e+00   +2.437100000000e+00   
+8.069292431480e-01   +1.875700000000e+00   +1.794100000000e+00   +1.806700000000e+00   +1.000000000000e+00   +1.000000000000e+00   +1.000000000000e+00   +1.000000000000e+00   +1.000000000000e+00   +1.711200000000e+00   +1.735000000000e+00   +1.737800000000e+00   +1.746700000000e+00   +1.775100000000e+00   +1.789700000000e+00   +1.000000000000e+00   +2.359900000000e+00   +2.359900000000e+00   +2.359900000000e+00   +2.359900000000e+00   +1.255200000000e+00   +2.359900000000e+00   +2.359900000000e+00   +2.359900000000e+00   +1.000000000000e+00   +2.359900000000e+00   +2.359900000000e+00   +2.359900000000e+00   +2.359900000000e+00   +1.000000000000e+00   +1.000000000000e+00   +2.359900000000e+00   +1.291300000000e+00   +2.359900000000e+00   +1.255200000000e+00   +1.212500000000e+00   +2.359900000000e+00   +1.000000000000e+00   +1.000000000000e+00   +2.359900000000e+00   +2.359900000000e+00   +1.000000000000e+00   +2.359900000000e+00   
                  0    training history length
                  0   fstar length
                  0   tpval length
