 *** BFO optimization checkpointing file 27-May-2018
 *** (c) Ph. Toint and M. Porcelli
           tleedfcn   objname     
                  0   maximize    
                  2   verbose     
 -9.99999990000e+24   ftarget     
 1.000000000000e-04   epsilon     
 0.000000000000e+00   bfgs_finish 
                  5   term_basis  
               2000   maxeval     
 1.01500000000e+03   neval       
 1.424800000000e+00   alpha       
 1.997000000000e-01   beta        
 2.359900000000e+00   gamma       
 1.000000000000e-04   eta         
 1.500000000000e+00   zeta        
                 11   inertia     
                  1   stype       
                 53   rseed       
 1.255000000000e+00   iota        
                  1   min1d       
 2.000000000000e+00   kappa       
 1.000000000000e-01   lambda      
 5.000000000000e+01   mu          
                  0   used_trained
                 42   n           
 cccccccccccccccccccccccccccccccccccccccccc   xtype       
                  0   use_lattice 
                  0   categorical 
           bfo_none   ssfname     
               1015   nfcalls     
 +6.638190062416e-01    +1.600000000000e+00    +1.600000000000e+00    +1.600000000000e+00    +5.831365411962e-01    +6.809288749980e-01    +1.600000000000e+00    +6.654469330374e-01    +1.600000000000e+00    +6.841160048054e-01    +1.600000000000e+00    +1.600000000000e+00    +1.600000000000e+00    +1.600000000000e+00    +1.600000000000e+00    +5.948634646673e-01    +1.600000000000e+00    +5.831365411962e-01    +5.831365411962e-01    +5.831365411962e-01    +5.831365411962e-01    +5.831365411962e-01    +5.831365411962e-01    +1.600000000000e+00    +5.831365411962e-01    +5.831365411962e-01    +1.600000000000e+00    +5.831365411962e-01    +5.831365411962e-01    +1.600000000000e+00    +5.831365411962e-01    +1.600000000000e+00    +1.600000000000e+00    +1.600000000000e+00    +1.600000000000e+00    +1.600000000000e+00    +1.600000000000e+00    +1.600000000000e+00    +1.600000000000e+00    +1.600000000000e+00    +1.600000000000e+00    +1.600000000000e+00    +1.600000000000e+00    +1.600000000000e+00    +1.600000000000e+00    +1.600000000000e+00    +1.600000000000e+00    +1.600000000000e+00    +1.600000000000e+00    +1.600000000000e+00    +1.600000000000e+00    +1.600000000000e+00    +1.600000000000e+00    +1.600000000000e+00    +1.600000000000e+00    +1.600000000000e+00    +1.600000000000e+00    +1.600000000000e+00    +1.600000000000e+00    +1.600000000000e+00    +1.600000000000e+00    +1.600000000000e+00    +1.600000000000e+00    +1.600000000000e+00    +1.600000000000e+00    +1.600000000000e+00    +1.600000000000e+00    +1.600000000000e+00    +1.600000000000e+00    +1.600000000000e+00    +1.600000000000e+00    +1.600000000000e+00    +1.600000000000e+00    +1.600000000000e+00    +1.600000000000e+00    +1.600000000000e+00    +1.600000000000e+00    +1.600000000000e+00    +1.600000000000e+00    +1.600000000000e+00    +1.600000000000e+00    +1.600000000000e+00    +1.600000000000e+00    +1.600000000000e+00    +1.600000000000e+00    +1.600000000000e+00    +1.600000000000e+00    +1.600000000000e+00    +1.600000000000e+00    +7.461646587725e-01    +6.558639353049e-01    +6.666542448651e-01    +6.227985570917e-01    +6.424906257492e-01    +6.200083972055e-01    +6.706547469164e-01    +6.056397316825e-01    +1.600000000000e+00    +6.616654296463e-01    +6.244168171842e-01    +5.867146122654e-01    +5.831365411962e-01    +5.831365411962e-01    +1.600000000000e+00    +6.375110621455e-01    +5.831365411962e-01    +5.831365411962e-01    +5.831365411962e-01    +5.831365411962e-01    +5.831365411962e-01    +5.831365411962e-01    +6.390797012388e-01    +7.032516716243e-01    +1.600000000000e+00    +6.375110621455e-01    +1.600000000000e+00    +7.609095253541e-01    +5.831365411962e-01    +5.831365411962e-01    +5.831365411962e-01    +5.831365411962e-01    +5.831365411962e-01    +5.831365411962e-01    +5.831365411962e-01    +5.941820911003e-01    +6.944505318333e-01    +6.008526351822e-01    +6.019130001607e-01    +7.591361587396e-01    +6.270979990329e-01    +6.486100072408e-01    +6.784810104165e-01    +7.301029785037e-01    +6.792951276910e-01    +6.846493099570e-01    +6.964779021715e-01    +7.671347378844e-01    +6.438124936495e-01    +7.311294174794e-01    +7.289492190924e-01    +7.073566115709e-01    +7.341227139633e-01    +6.712770046184e-01    +7.060487347427e-01    +6.193112738427e-01    +7.657776144907e-01    +7.123497279380e-01    +6.542533591501e-01    +6.655410399774e-01    +7.414089064667e-01    +6.902750973623e-01    +7.426347332531e-01    +7.745956336425e-01    +6.381688824087e-01    +6.388387979314e-01    +7.796394344306e-01    +6.548782027864e-01    +6.964746373230e-01    +7.272625528440e-01    +6.768381644096e-01    +7.105747739271e-01    +5.980840128657e-01    +5.925911079752e-01    +7.457463765921e-01    +7.158446660154e-01    +6.447230416915e-01    +6.496466145926e-01    +6.368190579455e-01    +6.772156216761e-01    +6.553752109911e-01    +6.979370692016e-01    +6.502452630630e-01    +6.357168643077e-01    +6.565637831092e-01    +6.238673754106e-01    +6.443293376771e-01    +6.285912118252e-01    +6.083046002830e-01    +6.227838675854e-01    +6.215009341836e-01    +6.252432503422e-01    +6.397141629015e-01    +6.641167760844e-01    +6.356621427300e-01    +6.581013157633e-01    +6.641396080174e-01    +5.922472913634e-01    +6.071402480544e-01    +6.482085429705e-01    +6.070572748744e-01    +6.282774269859e-01    +6.254879749760e-01    +6.124216602484e-01    +6.848151586508e-01    +6.495050275853e-01    +6.306635920961e-01    +6.866937852792e-01    +6.653164157892e-01    +6.233903649354e-01    +6.137817506794e-01    +6.634826481515e-01    +6.156683072989e-01    +6.748677999962e-01    +6.313156288064e-01    +6.744473654284e-01    +6.261084180201e-01    +6.714497898871e-01    +6.164812717830e-01    +6.561606483111e-01    +6.193837073336e-01    +6.739430617754e-01    +6.067970652027e-01    +6.242963291910e-01    +6.434419664947e-01    +6.349974121732e-01    +5.799635529225e-01    +6.776574899990e-01    +6.286298914263e-01    +6.662984457300e-01    +6.325694054816e-01    +6.275615700092e-01    +6.243113302211e-01    +6.502721796406e-01    +6.065188693157e-01    +6.200128647832e-01    +5.799176613487e-01    +6.641601075525e-01    +6.042659080326e-01    +7.290576145599e-01    +6.186848761906e-01    +6.420588400773e-01    +6.691052418685e-01    +6.577663683371e-01    +6.054288481158e-01    +6.696960422046e-01    +6.270280897955e-01    +6.719543995933e-01    +6.220766320092e-01    +6.531821218363e-01    +6.757120536523e-01    +5.784597620437e-01    +7.058345975548e-01    +6.447692988169e-01    +7.067673768421e-01    +6.948418288082e-01    +6.866945421804e-01    +6.169312029306e-01    +6.745935374940e-01    +6.130246240608e-01    +7.344999665996e-01    +6.659646592116e-01    +6.117974292946e-01    +6.330164349771e-01    +6.059603894413e-01    +7.003823624105e-01    +6.443217055070e-01    +6.272074597575e-01    +7.902727141837e-01    +6.667365512144e-01    +7.102190373780e-01    +7.223679725891e-01    +6.025257315676e-01    +6.590350523442e-01    +6.514820372981e-01    +6.975022005643e-01    +6.946024477104e-01    +6.482513401786e-01    +5.989516001936e-01    +6.210216698607e-01    +5.444238300880e-01    +6.644034529025e-01    +7.290619810351e-01    +6.076027670998e-01    +7.016716273639e-01    +6.377081261241e-01    +6.978299031342e-01    +6.682164995884e-01    +6.236091171993e-01    +7.349157393434e-01    +7.076651793053e-01    +6.908566515083e-01    +6.772366255314e-01    +7.199707174391e-01    +6.816892470749e-01    +6.910604651777e-01    +7.733018390016e-01    +6.754313044218e-01    +6.665974792614e-01    +6.820615106264e-01    +6.997398222665e-01    +6.649751825052e-01    +6.612793537921e-01    +6.719397136766e-01    +6.242219658405e-01    +7.080294404830e-01    +6.147342501307e-01    +6.289243562173e-01    +6.688576797863e-01    +7.677026658888e-01    +7.274819931612e-01    +6.397388808482e-01    +6.005180746872e-01    +6.467027483637e-01    +6.647560183001e-01    +7.312260043835e-01    +6.213960054268e-01    +6.585776164402e-01    +6.416270680534e-01    +6.891409582356e-01    +6.775259614032e-01    +7.030122588489e-01    +6.265714890049e-01    +8.135885651879e-01    +6.178940488945e-01    +7.968529551390e-01    +6.209591099408e-01    +6.614252823270e-01    +6.838337324096e-01    +6.820404421395e-01    +5.496827162626e-01    +6.286861261593e-01    +5.778609634585e-01    +7.246997307786e-01    +6.956708523605e-01    +7.498025887489e-01    +7.077166754004e-01    +6.329115213412e-01    +6.731380116049e-01    +6.999929290802e-01    +6.136325567107e-01    +6.346265207032e-01    +6.456373680698e-01    +7.327660095001e-01    +6.400764457464e-01    +7.715099008981e-01    +7.085300115833e-01    +6.756622293529e-01    +6.745565712433e-01    +6.935915269924e-01    +6.307108982595e-01    +7.538181812629e-01    +6.644652514640e-01    +6.116130925251e-01    +6.553395100096e-01    +6.409282799405e-01    +6.906702209801e-01    +6.510588301953e-01    +6.482432462151e-01    +6.622427089460e-01    +6.026407805864e-01    +6.355034826471e-01    +8.179752394034e-01    +6.537992745404e-01    +6.123833141790e-01    +7.045231940502e-01    +6.855246497234e-01    +6.745080309312e-01    +7.014860306383e-01    +6.350419394768e-01    +6.571271702766e-01    +6.691180306179e-01    +7.024586499963e-01    +5.892118281487e-01    +6.696515680356e-01    +6.516240477724e-01    +6.343261724371e-01    +6.367862006290e-01    +6.672762054455e-01    +7.284360745030e-01    +6.446825108111e-01    +6.153240086255e-01    +6.730132376418e-01    +6.402976783799e-01    +5.903369429891e-01    +6.568102996406e-01    +6.365909213364e-01    +6.317040282614e-01    +6.309186265451e-01    +6.722132828472e-01    +6.207853876271e-01    +6.730868161322e-01    +6.422230258346e-01    +6.418513808888e-01    +6.558473330610e-01    +6.132035459896e-01    +6.629702025416e-01    +7.618427749962e-01    +7.644520432793e-01    +6.630382484661e-01    +7.082144756375e-01    +7.305644521185e-01    +6.772765321257e-01    +6.706633789358e-01    +6.487675958663e-01    +5.615498897782e-01    +6.632584140766e-01    +6.742506617788e-01    +6.524189936073e-01    +6.556547206040e-01    +5.892754002396e-01    +6.663108269833e-01    +6.378961694530e-01    +7.574504383353e-01    +6.291348520719e-01    +6.609531745147e-01    +6.654019549241e-01    +6.681802635907e-01    +7.702324372449e-01    +7.201440234130e-01    +7.003243784168e-01    +6.687149144248e-01    +6.757279114792e-01    +6.181324478820e-01    +6.717853374561e-01    +6.416991500476e-01    +6.676152077399e-01    +6.125205496701e-01    +6.829126385720e-01    +6.514524547482e-01    +6.437030003953e-01    +6.443133455787e-01    +6.499310277099e-01    +6.651193224446e-01    +6.697251652659e-01    +6.636628569827e-01    +6.439327375388e-01    +6.634584803512e-01    +7.232260240031e-01    +5.672011890507e-01    +7.798332510341e-01    +6.677866413461e-01    +6.639025563036e-01    +6.670810438465e-01    +6.057753960034e-01    +6.286742454990e-01    +6.963894374464e-01    +6.240546351274e-01    +6.706784449813e-01    +6.339984237908e-01    +6.150154154844e-01    +6.134249377318e-01    +7.742249429649e-01    +6.787452685982e-01    +6.641014002719e-01    +6.438763385536e-01    +6.329977441013e-01    +6.565521850515e-01    +6.837542316188e-01    +6.408495005186e-01    +6.562372100568e-01    +6.685855826474e-01    +6.491767900550e-01    +6.380802956184e-01    +6.556962607915e-01    +6.761008320599e-01    +6.362067738411e-01    +7.410384941593e-01    +7.341231248383e-01    +6.898023906554e-01    +7.217757166539e-01    +6.260993664174e-01    +6.562317049120e-01    +7.290874201763e-01    +6.774295065658e-01    +6.241267288557e-01    +6.469014070049e-01    +7.328941764022e-01    +6.587648666006e-01    +6.220965081427e-01    +6.394115128748e-01    +6.441043175379e-01    +6.285819972055e-01    +6.731084838673e-01    +6.607478303534e-01    +6.633747261289e-01    +6.819315327909e-01    +6.483874728886e-01    +6.377093948089e-01    +5.682709889652e-01    +7.004739833797e-01    +5.878167766342e-01    +7.032356765087e-01    +6.514087976779e-01    +6.265206742368e-01    +6.514860225402e-01    +6.870798387416e-01    +6.242075713444e-01    +6.272550242776e-01    +6.570607684003e-01    +6.658230268306e-01    +7.067795452061e-01    +6.604498620118e-01    +6.376090682723e-01    +6.108813886721e-01    +7.629747190919e-01    +6.691278836675e-01    +6.359295666954e-01    +6.546786845967e-01    +6.327126044067e-01    +7.146344497739e-01    +6.512853365135e-01    +7.359843168817e-01    +6.562001130258e-01    +6.101911737495e-01    +6.679869627577e-01    +6.430429899396e-01    +6.420431445982e-01    +6.452002051399e-01    +6.827148595949e-01    +6.200512266635e-01    +6.267376262320e-01    +6.328503932948e-01    +6.746030862879e-01    +5.632042629229e-01    +6.242318069667e-01    +7.229134797999e-01    +6.485620676792e-01    +6.599054124535e-01    +6.994703628009e-01    +6.308473506551e-01    +6.205321311838e-01    +6.228140536514e-01    +6.746292989597e-01    +6.613131498551e-01    +6.316185211904e-01    +6.378923633256e-01    +6.281368716474e-01    +6.740615220616e-01    +6.700249827612e-01    +6.665783955390e-01    +6.426701897943e-01    +6.237643914244e-01    +6.477164750282e-01    +7.249313938673e-01    +6.440620507975e-01    +6.061938713688e-01    +6.817554774231e-01    +7.233551411481e-01    +6.614333157158e-01    +6.327255582106e-01    +6.777772320575e-01    +7.064003316810e-01    +5.881439872177e-01    +5.652045084336e-01    +7.244943522256e-01    +6.564843753715e-01    +6.906330940740e-01    +5.813234430348e-01    +6.293378008492e-01    +6.558029669913e-01    +6.920970540158e-01    +6.798227762970e-01    +6.422449031511e-01    +6.584599506194e-01    +7.611774741844e-01    +6.563842842260e-01    +6.404493695501e-01    +6.975375340882e-01    +6.239174156510e-01    +7.372839393529e-01    +6.520503727896e-01    +6.432913965793e-01    +6.622165250746e-01    +6.615952930919e-01    +6.984324198705e-01    +6.529081755850e-01    +6.279594957903e-01    +6.008346266381e-01    +6.513458839616e-01    +7.045064676507e-01    +5.831948682394e-01    +6.077758809503e-01    +6.508877733893e-01    +6.103064730255e-01    +6.459207812905e-01    +6.166794244359e-01    +6.753677384955e-01    +6.510708561706e-01    +6.504310905618e-01    +7.410596097600e-01    +7.458375874984e-01    +6.633242432256e-01    +7.243238928201e-01    +6.613762056502e-01    +7.553258788562e-01    +7.161924078726e-01    +6.374864478500e-01    +6.567363310948e-01    +6.399997705895e-01    +6.377012098168e-01    +6.717655012482e-01    +6.214600509887e-01    +6.737524191108e-01    +7.101155233176e-01    +6.388751660682e-01    +7.241050349205e-01    +7.276076518540e-01    +6.893084269922e-01    +7.424507473724e-01    +6.906530771064e-01    +6.844570592420e-01    +6.655036126009e-01    +6.409043686313e-01    +6.719161671740e-01    +7.839108081394e-01    +7.041261879844e-01    +6.812317179755e-01    +6.317478094720e-01    +7.135117259158e-01    +6.381299599159e-01    +6.334053436138e-01    +6.757188586001e-01    +6.397379297953e-01    +6.641943657017e-01    +7.241246058277e-01    +6.387643633852e-01    +7.255726617360e-01    +7.213911382100e-01    +6.609060157160e-01    +6.320883143145e-01    +6.274795273643e-01    +7.565257976740e-01    +6.224785506461e-01    +6.401073324637e-01    +6.287954365944e-01    +7.265525018935e-01    +7.486922191221e-01    +6.334053436138e-01    +6.387643633852e-01    +7.213911382100e-01    +7.151509368761e-01    +6.650102268039e-01    +6.555424343355e-01    +7.265525018935e-01    +6.439217939484e-01    +5.444238300880e-01    +7.265525018935e-01    +7.159669673130e-01    +5.444238300880e-01    +6.370122952034e-01    +6.333742042069e-01    +6.387643633852e-01    +6.269012014172e-01    +7.013188528920e-01    +7.159669673130e-01    +7.159669673130e-01    +7.135117259158e-01    +7.182894789755e-01    +5.444238300880e-01    +6.609446775270e-01    +7.417905526511e-01    +7.260388994220e-01    +6.401073324637e-01    +7.505778480395e-01    +7.159669673130e-01    +6.856817175876e-01    +5.444238300880e-01    +6.898336996749e-01    +6.167512801718e-01    +6.157478135450e-01    +7.159669673130e-01    +6.813540069731e-01    +6.295396933296e-01    +6.511162928177e-01    +6.387643633852e-01    +6.468456538353e-01    +6.899332031509e-01    +6.503563351934e-01    +7.159669673130e-01    +6.167512801718e-01    +6.401073324637e-01    +6.167512801718e-01    +7.591040612877e-01    +6.274325992317e-01    +7.265525018935e-01    +6.685416470343e-01    +6.224785506461e-01    +5.444238300880e-01    +6.698543371665e-01    +5.444238300880e-01    +7.505778480395e-01    +6.432746517939e-01    +6.388861611936e-01    +6.884835994227e-01    +6.816374508430e-01    +6.167512801718e-01    +7.260388994220e-01    +5.444238300880e-01    +7.184311686686e-01    +6.954989037999e-01    +6.379232729026e-01    +6.640459299750e-01    +6.167512801718e-01    +7.417905526511e-01    +6.401073324637e-01    +7.260388994220e-01    +6.178836088417e-01    +5.444238300880e-01    +7.130670086952e-01    +6.201517773720e-01    +5.444238300880e-01    +6.506643981884e-01    +6.468456538353e-01    +7.184311686686e-01    +7.150010299079e-01    +7.565257976740e-01    +6.757188586001e-01    +6.387643633852e-01    +6.998545778703e-01    +7.159669673130e-01    +5.444238300880e-01    +6.829382359327e-01    +7.213911382100e-01    +7.241246058277e-01    +6.774423998101e-01    +7.130670086952e-01    +6.157478135450e-01    +7.249075352165e-01    +6.898336996749e-01    +6.954989037999e-01    +6.510586801348e-01    +6.167512801718e-01    +7.287607514908e-01    +7.143681657874e-01    +6.698543371665e-01    +6.207468001557e-01    +7.265525018935e-01    +6.407397472634e-01    +7.151509368761e-01    +7.135117259158e-01    +6.662294192450e-01    +7.159669673130e-01    +7.713802415893e-01    +6.167512801718e-01    +6.508416143921e-01    +6.349045481691e-01    +7.135117259158e-01    +6.475698544405e-01    +6.407397472634e-01    +6.485916761289e-01    +7.159669673130e-01    +7.221916082173e-01    +7.310222135032e-01    +7.265525018935e-01    +7.591040612877e-01    +6.334053436138e-01    +6.381606911507e-01    +6.157478135450e-01    +6.632426560966e-01    +7.417905526511e-01    +6.397379297953e-01    +7.210781032099e-01    +6.401073324637e-01    +7.273798221327e-01    +7.241246058277e-01    +7.151509368761e-01    +7.486922191221e-01    +7.381359427659e-01    +5.444238300880e-01    +6.511964388465e-01    +7.330942006485e-01    +6.207468001557e-01    +7.158249198518e-01    +6.515676193550e-01    +7.213911382100e-01    +6.520190022514e-01    +5.444238300880e-01    +5.444238300880e-01    +6.510586801348e-01    +6.591111969458e-01    +7.135117259158e-01    +6.203838660020e-01    +7.475316041969e-01    +6.608366420962e-01    +6.337661232528e-01    +6.552285132353e-01    +6.639104942899e-01    +6.360395629699e-01    +6.707046355699e-01    +6.334053436138e-01    +7.241246058277e-01    +6.167512801718e-01    +7.100187540378e-01    +6.998545778703e-01    +5.444238300880e-01    +6.799391268364e-01    +7.135117259158e-01    +7.151509368761e-01    +6.401073324637e-01    +7.151509368761e-01    +6.168987028910e-01    +7.261337799645e-01    +7.486922191221e-01    +6.157478135450e-01    +6.890471303701e-01    +6.381606911507e-01    +7.169803099904e-01    +6.458933697111e-01    +5.444238300880e-01    +6.515676193550e-01    +6.511964388465e-01    +7.159669673130e-01    +6.485916761289e-01    +6.898336996749e-01    +7.249075352165e-01    +6.685416470343e-01    +6.591832839176e-01    +6.775107573982e-01    +6.381606911507e-01    +7.417905526511e-01    +6.337661232528e-01    +7.260388994220e-01    +6.255943264888e-01    +6.954989037999e-01    +7.370978167737e-01    +6.828650739326e-01    +6.293292355664e-01    +6.574398646174e-01    +5.444238300880e-01    +6.447648754484e-01    +6.167512801718e-01    +6.407397472634e-01    +6.884835994227e-01    +6.185803621314e-01    +6.167512801718e-01    +6.167512801718e-01    +7.213911382100e-01    +7.213911382100e-01    +7.151509368761e-01    +6.710944132097e-01    +6.167512801718e-01    +6.345725843372e-01    +6.884835994227e-01    +6.998545778703e-01    +6.538968131242e-01    +6.655335090248e-01    +7.210781032099e-01    +6.451060949440e-01    +6.554898946853e-01    +7.213911382100e-01    +6.719083175924e-01    +7.130670086952e-01    +7.143681657874e-01    +6.167512801718e-01    +7.417905526511e-01    +5.444238300880e-01    +7.151509368761e-01    +6.381606911507e-01    +6.698543371665e-01    +6.401073324637e-01    +6.575334278844e-01    +6.954989037999e-01    +7.184311686686e-01    +6.437424904010e-01    +6.586252536939e-01    +6.662294192450e-01    +6.381299599159e-01    +6.685416470343e-01    +7.310222135032e-01    +7.143681657874e-01    +5.444238300880e-01    +7.159669673130e-01    +6.333742042069e-01    +6.423058750551e-01    +6.224785506461e-01    +6.497088422122e-01    +7.159669673130e-01    +7.213911382100e-01    +6.515676193550e-01    +5.444238300880e-01    +6.766565833175e-01    +7.159669673130e-01    +7.213911382100e-01    +6.963500182939e-01    +6.167512801718e-01    +6.320899489946e-01    +7.805985096693e-01    +6.462529804040e-01    +6.665917139183e-01    +6.954989037999e-01    +6.201660804814e-01    +6.387643633852e-01    +7.145513628962e-01    +7.135117259158e-01    +7.267240762156e-01    +7.265525018935e-01    +5.444238300880e-01    +6.898336996749e-01    +6.644863146993e-01    +7.265525018935e-01    +6.954989037999e-01    +6.545163927728e-01    +7.150010299079e-01    +6.816374508430e-01    +7.159669673130e-01    +6.407397472634e-01    +6.381299599159e-01    +5.444238300880e-01    +7.254482843459e-01    +6.401073324637e-01    +7.013188528920e-01    +6.640459299750e-01    +6.263067976662e-01    +7.135117259158e-01    +7.159669673130e-01    +7.505778480395e-01    +6.276776129215e-01    +6.390387207078e-01    +6.724753352097e-01    +5.444238300880e-01    +6.899332031509e-01    +6.804990013305e-01    +6.898336996749e-01    +6.609446775270e-01    +6.523784214611e-01    +5.444238300880e-01    +6.743499529794e-01    +7.330942006485e-01    +6.784662018444e-01    +7.159669673130e-01    +6.710944132097e-01    +7.193151041010e-01    +6.609446775270e-01    +6.674239450751e-01    +6.167512801718e-01    +6.381606911507e-01    +6.899332031509e-01    +6.813540069731e-01    +7.825909342122e-01    +6.898336996749e-01    +6.609446775270e-01    +6.918329097961e-01    +6.954989037999e-01    +7.013188528920e-01    +6.534755885071e-01    +6.640459299750e-01    +6.529954607927e-01    +6.890471303701e-01    +7.013188528920e-01    +7.159669673130e-01    +7.530150256648e-01    +6.167512801718e-01    +6.511964388465e-01    +6.698543371665e-01    +6.345249918772e-01    +7.505778480395e-01    +6.167512801718e-01    +7.417905526511e-01    +7.505778480395e-01    +6.167512801718e-01    +5.444238300880e-01    +7.151509368761e-01    +6.157478135450e-01    +7.159669673130e-01    +6.157478135450e-01    +6.998545778703e-01    +6.387643633852e-01    +7.265525018935e-01    +7.215046345397e-01    +7.486922191221e-01    +7.151509368761e-01    +7.213911382100e-01    +7.151509368761e-01    +6.580055309996e-01    +7.135117259158e-01    +7.241246058277e-01    +6.609446775270e-01    +6.397379297953e-01    +6.538968131242e-01    +7.174174206087e-01    +6.813540069731e-01    +6.685416470343e-01    +6.167512801718e-01    +6.494872347714e-01    +6.744070743179e-01    +6.387643633852e-01    +7.265525018935e-01    +6.511964388465e-01    +6.721536077554e-01    +6.884835994227e-01    +5.444238300880e-01    +6.642866627243e-01    +7.184311686686e-01    +7.142183057513e-01    +6.167512801718e-01    +6.511964388465e-01    +6.749614642482e-01    +6.662294192450e-01    +7.265525018935e-01    +6.352931624513e-01    +6.665917139183e-01    +7.333402261411e-01    +6.662294192450e-01    +6.727963834104e-01    +7.565257976740e-01    +7.265525018935e-01    +7.090716136950e-01    +7.213911382100e-01    +7.151509368761e-01    +6.407397472634e-01    +6.884835994227e-01    +6.334053436138e-01    +6.458933697111e-01    +7.159669673130e-01    +6.157478135450e-01    +7.505778480395e-01    +7.497110330239e-01    +6.884835994227e-01    +5.872789003521e-01    +6.693819955616e-01    +6.410732228624e-01    +6.511162928177e-01    +6.250286763529e-01    +7.061233864066e-01    +6.167512801718e-01   
+7.711004825386e-05   +7.711004825386e-05   +7.711004825386e-05   +7.711004825386e-05   +7.711004825386e-05   +7.711004825386e-05   +7.711004825386e-05   +7.711004825386e-05   +7.711004825386e-05   +7.711004825386e-05   +7.711004825386e-05   +7.711004825386e-05   +7.711004825386e-05   +7.711004825386e-05   +7.711004825386e-05   +7.711004825386e-05   +7.711004825386e-05   +7.711004825386e-05   +7.711004825386e-05   +7.711004825386e-05   +7.711004825386e-05   +7.711004825386e-05   +7.711004825386e-05   +7.711004825386e-05   +7.711004825386e-05   +7.711004825386e-05   +7.711004825386e-05   +7.711004825386e-05   +7.711004825386e-05   +7.711004825386e-05   +7.711004825386e-05   +7.711004825386e-05   +7.711004825386e-05   +7.711004825386e-05   +7.711004825386e-05   +7.711004825386e-05   +7.711004825386e-05   +7.711004825386e-05   +7.711004825386e-05   +7.711004825386e-05   +7.711004825386e-05   +7.711004825386e-05   
+1.036800000000e+00   +1.036800000000e+00   +1.036800000000e+00   +1.036800000000e+00   +1.036800000000e+00   +1.036800000000e+00   +1.036800000000e+00   +1.036800000000e+00   +1.036800000000e+00   +1.036800000000e+00   +1.036800000000e+00   +1.036800000000e+00   +1.036800000000e+00   +1.036800000000e+00   +1.036800000000e+00   +1.036800000000e+00   +1.036800000000e+00   +1.036800000000e+00   +1.036800000000e+00   +1.036800000000e+00   +1.036800000000e+00   +1.036800000000e+00   +1.036800000000e+00   +1.036800000000e+00   +1.036800000000e+00   +1.036800000000e+00   +1.036800000000e+00   +1.036800000000e+00   +1.036800000000e+00   +1.036800000000e+00   +1.036800000000e+00   +1.036800000000e+00   +1.036800000000e+00   +1.036800000000e+00   +1.036800000000e+00   +1.036800000000e+00   +1.036800000000e+00   +1.036800000000e+00   +1.036800000000e+00   +1.036800000000e+00   +1.036800000000e+00   +1.036800000000e+00   
+1.000000000000e+00   +1.000000000000e+00   +1.000000000000e+00   +1.000000000000e+00   +1.000000000000e+00   +1.000000000000e+00   +1.000000000000e+00   +1.000000000000e+00   +1.000000000000e+00   +1.000000000000e+00   +1.000000000000e+00   +1.000000000000e+00   +1.000000000000e+00   +1.000000000000e+00   +1.000000000000e+00   +1.000000000000e+00   +1.000000000000e+00   +1.000000000000e+00   +1.000000000000e+00   +1.000000000000e+00   +1.000000000000e+00   +1.000000000000e+00   +1.000000000000e+00   +1.000000000000e+00   +1.000000000000e+00   +1.000000000000e+00   +1.000000000000e+00   +1.000000000000e+00   +1.000000000000e+00   +1.000000000000e+00   +1.000000000000e+00   +1.000000000000e+00   +1.000000000000e+00   +1.000000000000e+00   +1.000000000000e+00   +1.000000000000e+00   +1.000000000000e+00   +1.000000000000e+00   +1.000000000000e+00   +1.000000000000e+00   +1.000000000000e+00   +1.000000000000e+00   
+1.000000000000e+00   +1.000000000000e+00   +1.000000000000e+00   +1.000000000000e+00   +1.000000000000e+00   +1.000000000000e+00   +1.000000000000e+00   +1.000000000000e+00   +1.000000000000e+00   +1.000000000000e+00   +1.000000000000e+00   +1.000000000000e+00   +1.000000000000e+00   +1.000000000000e+00   +1.000000000000e+00   +1.000000000000e+00   +1.000000000000e+00   +1.000000000000e+00   +1.000000000000e+00   +1.000000000000e+00   +1.000000000000e+00   +1.000000000000e+00   +1.000000000000e+00   +1.000000000000e+00   +1.000000000000e+00   +1.000000000000e+00   +1.000000000000e+00   +1.000000000000e+00   +1.000000000000e+00   +1.000000000000e+00   +1.000000000000e+00   +1.000000000000e+00   +1.000000000000e+00   +1.000000000000e+00   +1.000000000000e+00   +1.000000000000e+00   +1.000000000000e+00   +1.000000000000e+00   +1.000000000000e+00   +1.000000000000e+00   +1.000000000000e+00   +1.000000000000e+00   
-4.015287399600e+00   -3.427156497000e+00   -3.585951020800e+00   -1.450614581600e+00   -1.172227120700e+00   -1.022937398900e+00   -1.029975967200e+00   -6.786414299000e-01   +0.000000000000e+00   +0.000000000000e+00   +0.000000000000e+00   +0.000000000000e+00   +0.000000000000e+00   +0.000000000000e+00   -1.033059888000e+00   +0.000000000000e+00   +0.000000000000e+00   +0.000000000000e+00   +0.000000000000e+00   +0.000000000000e+00   +0.000000000000e+00   +0.000000000000e+00   +0.000000000000e+00   -1.120131481500e+00   +0.000000000000e+00   +0.000000000000e+00   +0.000000000000e+00   +0.000000000000e+00   -1.014966774400e+00   +0.000000000000e+00   -1.007933022300e+00   +0.000000000000e+00   +0.000000000000e+00   +0.000000000000e+00   +0.000000000000e+00   +0.000000000000e+00   -9.964120361000e-01   -1.062753122000e+00   +0.000000000000e+00   +0.000000000000e+00   -1.020369048000e+00   +0.000000000000e+00   