 *** BFO optimization checkpointing file 27-May-2018
 *** (c) Ph. Toint and M. Porcelli
          tleedfcn2   objname     
                  0   maximize    
                  2   verbose     
 -9.99999990000e+24   ftarget     
 1.000000000000e-04   epsilon     
 0.000000000000e+00   bfgs_finish 
                  5   term_basis  
               3000   maxeval     
 1.77000000000e+03   neval       
 1.424800000000e+00   alpha       
 1.997000000000e-01   beta        
 2.359900000000e+00   gamma       
 1.000000000000e-04   eta         
 1.500000000000e+00   zeta        
                 11   inertia     
                  1   stype       
                 53   rseed       
 1.255000000000e+00   iota        
                  1   min1d       
 2.000000000000e+00   kappa       
 1.000000000000e-01   lambda      
 5.000000000000e+01   mu          
                  0   used_trained
                 56   n           
 cccccccccccccccccccccccccccccccccccccccccccccccccccccccc   xtype       
                  0   use_lattice 
                  0   categorical 
           bfo_none   ssfname     
               1770   nfcalls     
 +6.638190062414e-01    +6.068970361548e-01    +6.363572573333e-01    +6.723178542699e-01    +5.818770426661e-01    +6.102121125517e-01    +6.588960919565e-01    +6.211961382780e-01    +5.169129079377e-01    +6.786473840079e-01    +6.152773785220e-01    +5.528277479865e-01    +6.167124767861e-01    +6.348977013140e-01    +6.203446676653e-01    +6.224554573459e-01    +6.651226961532e-01    +6.997821260863e-01    +6.398478118991e-01    +5.670705943921e-01    +6.653983913021e-01    +6.336698540788e-01    +1.600000000000e+00    +1.600000000000e+00    +1.600000000000e+00    +6.765868194540e-01    +1.600000000000e+00    +1.600000000000e+00    +1.600000000000e+00    +6.338502393909e-01    +1.600000000000e+00    +6.763066185856e-01    +1.600000000000e+00    +1.600000000000e+00    +1.600000000000e+00    +1.600000000000e+00    +1.600000000000e+00    +1.600000000000e+00    +1.600000000000e+00    +1.600000000000e+00    +1.600000000000e+00    +1.600000000000e+00    +1.600000000000e+00    +1.600000000000e+00    +1.600000000000e+00    +1.600000000000e+00    +1.600000000000e+00    +1.600000000000e+00    +1.600000000000e+00    +1.600000000000e+00    +5.169129079377e-01    +1.600000000000e+00    +1.600000000000e+00    +5.169129079377e-01    +5.169129079377e-01    +5.169129079377e-01    +5.169129079377e-01    +1.600000000000e+00    +5.169129079377e-01    +6.133754088184e-01    +1.600000000000e+00    +1.600000000000e+00    +1.600000000000e+00    +1.600000000000e+00    +1.600000000000e+00    +5.169129079377e-01    +1.600000000000e+00    +5.169129079377e-01    +5.169129079377e-01    +1.600000000000e+00    +5.169129079377e-01    +6.782013975411e-01    +1.600000000000e+00    +1.600000000000e+00    +1.600000000000e+00    +1.600000000000e+00    +1.600000000000e+00    +1.600000000000e+00    +1.600000000000e+00    +1.600000000000e+00    +1.600000000000e+00    +1.600000000000e+00    +1.600000000000e+00    +1.600000000000e+00    +1.600000000000e+00    +1.600000000000e+00    +1.600000000000e+00    +1.600000000000e+00    +1.600000000000e+00    +1.600000000000e+00    +1.600000000000e+00    +1.600000000000e+00    +1.600000000000e+00    +1.600000000000e+00    +1.600000000000e+00    +1.600000000000e+00    +1.600000000000e+00    +1.600000000000e+00    +1.600000000000e+00    +1.600000000000e+00    +1.600000000000e+00    +1.600000000000e+00    +1.600000000000e+00    +1.600000000000e+00    +1.600000000000e+00    +5.169129079377e-01    +5.169129079377e-01    +5.169129079377e-01    +5.169129079377e-01    +5.169129079377e-01    +5.169129079377e-01    +5.169129079377e-01    +5.169129079377e-01    +5.169129079377e-01    +5.169129079377e-01    +5.169129079377e-01    +5.169129079377e-01    +5.169129079377e-01    +5.169129079377e-01    +5.618059661000e-01    +1.600000000000e+00    +1.600000000000e+00    +5.858066524322e-01    +1.600000000000e+00    +5.879547527128e-01    +5.657781397505e-01    +6.249816672466e-01    +5.874594158804e-01    +6.124273047615e-01    +1.600000000000e+00    +4.870481051537e-01    +4.870481051537e-01    +4.870481051537e-01    +4.870481051537e-01    +4.870481051537e-01    +4.870481051537e-01    +4.870481051537e-01    +4.870481051537e-01    +4.870481051537e-01    +4.870481051537e-01    +4.870481051537e-01    +4.870481051537e-01    +4.870481051537e-01    +4.870481051537e-01    +4.870481051537e-01    +6.449759174262e-01    +1.600000000000e+00    +6.100202291949e-01    +5.024275901109e-01    +6.665118508568e-01    +1.600000000000e+00    +5.689080366387e-01    +6.836880507452e-01    +5.314639487649e-01    +1.600000000000e+00    +1.600000000000e+00    +6.342719658616e-01    +6.772347120823e-01    +1.600000000000e+00    +6.010691377750e-01    +6.343487377784e-01    +1.600000000000e+00    +1.600000000000e+00    +6.045408461860e-01    +1.600000000000e+00    +6.010415651229e-01    +6.703111809951e-01    +1.600000000000e+00    +6.746629482153e-01    +6.959594620315e-01    +6.197712120059e-01    +5.855255783450e-01    +6.822187277136e-01    +7.410520567499e-01    +6.279934088201e-01    +1.600000000000e+00    +1.600000000000e+00    +1.600000000000e+00    +1.600000000000e+00    +6.890550087740e-01    +6.051122852206e-01    +5.900532764435e-01    +8.284254098376e-01    +1.600000000000e+00    +1.600000000000e+00    +6.521127655990e-01    +5.676677565006e-01    +6.728585681710e-01    +6.942031826240e-01    +1.600000000000e+00    +6.158512219263e-01    +5.517011794535e-01    +5.506390302676e-01    +5.907733338970e-01    +1.600000000000e+00    +1.600000000000e+00    +5.808113783232e-01    +5.989445829414e-01    +1.600000000000e+00    +1.600000000000e+00    +1.600000000000e+00    +5.957318157624e-01    +1.600000000000e+00    +1.600000000000e+00    +6.988019728146e-01    +1.600000000000e+00    +6.115676870425e-01    +7.589909256590e-01    +7.079160071601e-01    +6.994279980242e-01    +1.600000000000e+00    +1.600000000000e+00    +1.600000000000e+00    +5.362463563068e-01    +6.804292284414e-01    +1.600000000000e+00    +1.600000000000e+00    +6.273926636028e-01    +5.315184151193e-01    +6.149254361322e-01    +1.600000000000e+00    +5.925704836267e-01    +1.600000000000e+00    +7.054557407103e-01    +5.735037180690e-01    +7.458772694662e-01    +1.600000000000e+00    +6.630102210938e-01    +5.062543237199e-01    +4.870481051537e-01    +4.870481051537e-01    +4.870481051537e-01    +4.870481051537e-01    +4.870481051537e-01    +4.870481051537e-01    +4.870481051537e-01    +4.870481051537e-01    +4.870481051537e-01    +4.870481051537e-01    +4.870481051537e-01    +4.870481051537e-01    +4.870481051537e-01    +4.870481051537e-01    +5.757282478625e-01    +5.650313769750e-01    +5.782297368753e-01    +5.255025132827e-01    +5.713553982254e-01    +6.177192692023e-01    +6.122974277391e-01    +5.083235247086e-01    +5.797091866972e-01    +6.410052328893e-01    +4.920102345934e-01    +5.858797859227e-01    +5.478584864460e-01    +6.805841830429e-01    +4.983518766773e-01    +5.789730729287e-01    +5.608900301259e-01    +5.515117337851e-01    +5.546051357979e-01    +5.151876923645e-01    +5.735417285218e-01    +6.362937284221e-01    +5.753948647874e-01    +6.038963150161e-01    +6.206300923063e-01    +5.145501780302e-01    +5.018223004775e-01    +6.458562211559e-01    +5.027873602332e-01    +5.811153208199e-01    +5.961803567762e-01    +5.017570004206e-01    +6.088959831371e-01    +5.269128946424e-01    +5.935134563118e-01    +5.478811264235e-01    +5.669613669748e-01    +5.543282593279e-01    +6.317577593677e-01    +5.097657207735e-01    +6.129340212429e-01    +6.657029100245e-01    +5.836512347935e-01    +5.549864630985e-01    +6.017755926899e-01    +5.667013790021e-01    +5.170587115417e-01    +6.797243376671e-01    +5.898144826199e-01    +5.600024666999e-01    +6.639586634719e-01    +4.948060063599e-01    +5.491620703909e-01    +5.093280470727e-01    +6.234598658885e-01    +5.237041055588e-01    +5.786402395136e-01    +5.682562463116e-01    +5.227999764393e-01    +5.714058119582e-01    +5.867632110925e-01    +5.614548045996e-01    +5.647288929051e-01    +6.534061107359e-01    +6.796827652033e-01    +6.037232636577e-01    +5.604932789651e-01    +6.964193000971e-01    +5.720589049134e-01    +6.066961341782e-01    +6.686198389929e-01    +5.271464953666e-01    +6.128369685006e-01    +4.966257131003e-01    +5.333888031662e-01    +6.008544583483e-01    +5.613876034800e-01    +5.468700233965e-01    +5.129231043359e-01    +5.297981588943e-01    +4.861014436322e-01    +4.861014436322e-01    +4.861014436322e-01    +4.861014436322e-01    +4.861014436322e-01    +4.861014436322e-01    +4.861014436322e-01    +4.861014436322e-01    +4.861014436322e-01    +4.861014436322e-01    +4.861014436322e-01    +4.861014436322e-01    +4.861014436322e-01    +4.861014436322e-01    +4.861014436322e-01    +5.852285814086e-01    +6.459633421334e-01    +6.033191310187e-01    +4.990812867542e-01    +5.012180626080e-01    +5.769017034915e-01    +6.060232571679e-01    +5.057633190989e-01    +5.555059578327e-01    +5.002389565321e-01    +6.357454730501e-01    +5.449442538772e-01    +4.843222207774e-01    +4.843222207774e-01    +4.843222207774e-01    +4.843222207774e-01    +4.843222207774e-01    +4.843222207774e-01    +4.843222207774e-01    +4.843222207774e-01    +4.843222207774e-01    +4.843222207774e-01    +4.843222207774e-01    +4.843222207774e-01    +4.843222207774e-01    +4.843222207774e-01    +4.843222207774e-01    +4.966299866760e-01    +5.534602867710e-01    +5.681233692595e-01    +4.856326075326e-01    +5.902213072370e-01    +5.061184788893e-01    +6.077897324546e-01    +5.051888111133e-01    +5.508744995739e-01    +6.453631059020e-01    +6.108268728123e-01    +5.175260544835e-01    +5.577487954424e-01    +6.525251156400e-01    +6.466131914582e-01    +5.805434960676e-01    +5.663732667082e-01    +5.293250100267e-01    +5.297819461871e-01    +5.844832751009e-01    +5.049052420717e-01    +7.544760849802e-01    +6.504655687014e-01    +5.848023345794e-01    +6.280832559681e-01    +5.430869834970e-01    +5.776148039133e-01    +6.008888573771e-01    +6.121274933832e-01    +4.947617537482e-01    +7.353165951756e-01    +4.951944385277e-01    +5.707338961254e-01    +5.349117101054e-01    +5.575275027314e-01    +5.649621432074e-01    +4.983353511366e-01    +6.434417629278e-01    +4.816099513932e-01    +4.816099513932e-01    +4.816099513932e-01    +4.816099513932e-01    +4.816099513932e-01    +4.816099513932e-01    +4.816099513932e-01    +4.816099513932e-01    +4.816099513932e-01    +4.816099513932e-01    +4.816099513932e-01    +4.816099513932e-01    +4.816099513932e-01    +4.816099513932e-01    +4.816099513932e-01    +7.474714802937e-01    +5.241248585292e-01    +5.860857218406e-01    +4.961275998018e-01    +5.364449573330e-01    +5.502665576588e-01    +5.606306684583e-01    +5.497799401872e-01    +4.952211743578e-01    +7.198801823735e-01    +5.596881779532e-01    +1.600000000000e+00    +5.686817246491e-01    +5.922149844484e-01    +5.505871358740e-01    +7.333382490249e-01    +5.159517632393e-01    +6.011835847253e-01    +6.562342214400e-01    +5.250506834815e-01    +7.084168491440e-01    +5.923185785105e-01    +6.761639429147e-01    +5.138640479688e-01    +5.569383474845e-01    +7.631825074150e-01    +6.823294850506e-01    +6.508349327295e-01    +6.424634069340e-01    +7.103389493213e-01    +5.974865216310e-01    +7.148611231590e-01    +5.982646728376e-01    +5.144863962275e-01    +7.151745348187e-01    +5.703723267026e-01    +5.196919733934e-01    +5.151630000393e-01    +5.185585250146e-01    +6.945807770348e-01    +5.464604524664e-01    +5.816530628765e-01    +5.769062562795e-01    +4.911862661150e-01    +5.146303889788e-01    +6.389773356575e-01    +6.149937200421e-01    +6.190606925257e-01    +4.863632833298e-01    +5.173526634617e-01    +5.698715366402e-01    +5.578011542914e-01    +6.054740506082e-01    +5.421932427203e-01    +7.363561092337e-01    +5.541439641409e-01    +5.600061842412e-01    +6.205009489102e-01    +6.232990408774e-01    +5.442553732176e-01    +6.520778783950e-01    +5.432252863056e-01    +4.719015028218e-01    +4.719015028218e-01    +4.719015028218e-01    +4.719015028218e-01    +4.719015028218e-01    +4.719015028218e-01    +4.719015028218e-01    +4.719015028218e-01    +4.719015028218e-01    +4.719015028218e-01    +4.719015028218e-01    +4.719015028218e-01    +4.719015028218e-01    +4.719015028218e-01    +4.719015028218e-01    +6.356396030234e-01    +6.380520366233e-01    +6.643726892939e-01    +6.791129649075e-01    +5.648751013532e-01    +1.600000000000e+00    +6.138506422278e-01    +7.386281684060e-01    +6.098665501583e-01    +6.513476988831e-01    +6.571516260016e-01    +5.687609228825e-01    +5.184972960910e-01    +1.600000000000e+00    +5.825254081155e-01    +5.668650224910e-01    +6.827973636078e-01    +6.527890306148e-01    +5.031671329513e-01    +5.962440291608e-01    +6.154199016417e-01    +5.268413910657e-01    +1.600000000000e+00    +6.569834013184e-01    +6.769584119192e-01    +7.551354045470e-01    +1.600000000000e+00    +6.443460968337e-01    +4.857667170640e-01    +7.111766823726e-01    +1.600000000000e+00    +6.249211811598e-01    +4.969792458298e-01    +6.697888031960e-01    +6.690262945642e-01    +7.370397214990e-01    +1.600000000000e+00    +5.597025451181e-01    +4.942507831275e-01    +5.512469749131e-01    +6.656172067317e-01    +4.921786364134e-01    +6.570069253272e-01    +5.130780811617e-01    +5.597469505645e-01    +7.126677159725e-01    +7.130890375964e-01    +6.689310407733e-01    +6.170684578194e-01    +1.600000000000e+00    +1.600000000000e+00    +5.293570222630e-01    +6.041780302460e-01    +5.786860501593e-01    +5.453176392950e-01    +6.106406068384e-01    +5.260470084105e-01    +6.555433537283e-01    +6.339431386350e-01    +7.370158018450e-01    +6.640545880922e-01    +1.600000000000e+00    +5.693577567267e-01    +1.600000000000e+00    +6.031738762488e-01    +5.089955233817e-01    +1.600000000000e+00    +5.916289638557e-01    +6.600529456007e-01    +8.249865897275e-01    +6.533470059679e-01    +5.890145826647e-01    +5.567151546336e-01    +5.504003262493e-01    +6.105088481511e-01    +1.600000000000e+00    +5.445424012690e-01    +7.021631147660e-01    +5.405692776141e-01    +6.677490315523e-01    +1.600000000000e+00    +5.889225829516e-01    +6.521065042168e-01    +5.213881046124e-01    +4.719015028218e-01    +4.719015028218e-01    +4.719015028218e-01    +4.719015028218e-01    +4.719015028218e-01    +4.719015028218e-01    +4.719015028218e-01    +4.719015028218e-01    +4.719015028218e-01    +4.719015028218e-01    +4.719015028218e-01    +4.719015028218e-01    +4.719015028218e-01    +4.719015028218e-01    +4.773000814009e-01    +5.243449544242e-01    +5.066789820284e-01    +5.299008516887e-01    +4.682624774388e-01    +4.682624774388e-01    +4.682624774388e-01    +4.682624774388e-01    +4.682624774388e-01    +4.682624774388e-01    +4.682624774388e-01    +4.682624774388e-01    +4.682624774388e-01    +4.682624774388e-01    +4.682624774388e-01    +4.682624774388e-01    +4.682624774388e-01    +4.682624774388e-01    +4.682624774388e-01    +5.655065979482e-01    +4.747177534209e-01    +4.975076014181e-01    +4.809144422109e-01    +4.656618441608e-01    +4.656618441608e-01    +4.656618441608e-01    +4.656618441608e-01    +4.656618441608e-01    +4.656618441608e-01    +4.656618441608e-01    +4.656618441608e-01    +4.656618441608e-01    +4.656618441608e-01    +4.656618441608e-01    +4.656618441608e-01    +4.656618441608e-01    +4.656618441608e-01    +4.656618441608e-01    +5.600167087368e-01    +4.974824678117e-01    +6.975161253136e-01    +5.224579391808e-01    +5.718965831506e-01    +5.730154758193e-01    +4.885445315554e-01    +5.743047294666e-01    +5.856951191467e-01    +6.558892006043e-01    +4.925816172795e-01    +6.422648686291e-01    +5.371625650467e-01    +6.997230839665e-01    +6.007923536562e-01    +4.761373902548e-01    +5.892677488793e-01    +4.749339412696e-01    +4.651280649428e-01    +4.651280649428e-01    +4.651280649428e-01    +4.651280649428e-01    +4.651280649428e-01    +4.651280649428e-01    +4.651280649428e-01    +4.651280649428e-01    +4.651280649428e-01    +4.651280649428e-01    +4.651280649428e-01    +4.651280649428e-01    +4.651280649428e-01    +4.651280649428e-01    +4.651280649428e-01    +6.587942723573e-01    +6.385259280027e-01    +5.917320335594e-01    +4.699642058767e-01    +1.600000000000e+00    +5.695622823161e-01    +4.960526157594e-01    +5.967397808519e-01    +8.007890608213e-01    +4.751832765373e-01    +5.693680615355e-01    +5.238935237393e-01    +5.394714645765e-01    +6.750978735656e-01    +1.600000000000e+00    +5.303831280461e-01    +1.600000000000e+00    +8.111463841318e-01    +5.938009902156e-01    +5.343252425435e-01    +5.650536728478e-01    +4.772588229752e-01    +6.200514767194e-01    +4.689608737250e-01    +5.396545598684e-01    +4.976878722016e-01    +5.267385449404e-01    +5.504600953178e-01    +6.634306954752e-01    +1.600000000000e+00    +4.641818294068e-01    +4.641818294068e-01    +4.641818294068e-01    +4.641818294068e-01    +4.641818294068e-01    +4.641818294068e-01    +4.641818294068e-01    +4.641818294068e-01    +4.641818294068e-01    +4.641818294068e-01    +4.641818294068e-01    +4.641818294068e-01    +4.641818294068e-01    +4.641818294068e-01    +4.641818294068e-01    +5.403461772653e-01    +1.600000000000e+00    +1.600000000000e+00    +4.694431106871e-01    +6.100667451812e-01    +1.600000000000e+00    +6.216914249843e-01    +1.600000000000e+00    +1.600000000000e+00    +5.140686928800e-01    +5.338939444351e-01    +1.600000000000e+00    +1.600000000000e+00    +5.160202490355e-01    +5.483216741350e-01    +1.600000000000e+00    +1.600000000000e+00    +4.806123565449e-01    +1.600000000000e+00    +6.227487745431e-01    +5.293697798778e-01    +5.032748232304e-01    +1.600000000000e+00    +7.499569606274e-01    +1.600000000000e+00    +6.825529204175e-01    +5.660417262996e-01    +1.600000000000e+00    +6.343148294631e-01    +1.600000000000e+00    +1.600000000000e+00    +5.890640103689e-01    +5.648312733292e-01    +1.600000000000e+00    +1.600000000000e+00    +6.044776966071e-01    +1.600000000000e+00    +5.549439702820e-01    +1.600000000000e+00    +5.526782228309e-01    +6.036228152666e-01    +1.600000000000e+00    +1.600000000000e+00    +4.806001675999e-01    +6.715608382136e-01    +1.600000000000e+00    +5.216359100379e-01    +1.600000000000e+00    +4.530164492224e-01    +4.530164492224e-01    +4.530164492224e-01    +4.530164492224e-01    +4.530164492224e-01    +4.530164492224e-01    +4.530164492224e-01    +4.530164492224e-01    +4.530164492224e-01    +4.530164492224e-01    +4.530164492224e-01    +4.530164492224e-01    +4.530164492224e-01    +4.530164492224e-01    +4.530164492224e-01    +4.869690557943e-01    +1.600000000000e+00    +1.600000000000e+00    +1.600000000000e+00    +1.600000000000e+00    +5.772235242214e-01    +6.805903980351e-01    +1.600000000000e+00    +1.600000000000e+00    +1.600000000000e+00    +1.600000000000e+00    +1.600000000000e+00    +1.600000000000e+00    +5.151814222200e-01    +1.600000000000e+00    +5.694787518599e-01    +5.570358860089e-01    +1.600000000000e+00    +1.600000000000e+00    +6.520428500603e-01    +1.600000000000e+00    +1.600000000000e+00    +6.691852778283e-01    +6.705138914381e-01    +1.600000000000e+00    +1.600000000000e+00    +1.600000000000e+00    +1.600000000000e+00    +6.900710769333e-01    +1.600000000000e+00    +1.600000000000e+00    +1.600000000000e+00    +5.319878179891e-01    +7.236787335239e-01    +5.454038447518e-01    +1.600000000000e+00    +1.600000000000e+00    +6.709065563924e-01    +1.600000000000e+00    +1.600000000000e+00    +1.600000000000e+00    +1.600000000000e+00    +5.880455789991e-01    +1.600000000000e+00    +1.600000000000e+00    +6.292335733745e-01    +1.600000000000e+00    +7.860353244622e-01    +1.600000000000e+00    +1.600000000000e+00    +1.600000000000e+00    +6.608891343999e-01    +1.600000000000e+00    +6.427801928137e-01    +1.600000000000e+00    +1.600000000000e+00    +1.600000000000e+00    +6.087494132537e-01    +1.600000000000e+00    +1.600000000000e+00    +1.600000000000e+00    +5.855221623588e-01    +1.600000000000e+00    +6.154078301661e-01    +1.600000000000e+00    +1.600000000000e+00    +1.600000000000e+00    +1.600000000000e+00    +1.600000000000e+00    +6.622109748679e-01    +4.966967357909e-01    +1.600000000000e+00    +1.600000000000e+00    +1.600000000000e+00    +1.600000000000e+00    +1.600000000000e+00    +4.838979267306e-01    +1.600000000000e+00    +1.600000000000e+00    +1.600000000000e+00    +6.611360235557e-01    +1.600000000000e+00    +1.600000000000e+00    +1.600000000000e+00    +4.530164492224e-01    +4.530164492224e-01    +4.530164492224e-01    +4.530164492224e-01    +4.530164492224e-01    +4.530164492224e-01    +4.530164492224e-01    +4.530164492224e-01    +4.530164492224e-01    +4.530164492224e-01    +4.530164492224e-01    +4.530164492224e-01    +4.530164492224e-01    +4.530164492224e-01    +4.623149817739e-01    +5.385410921982e-01    +4.470963269895e-01    +4.470963269895e-01    +4.470963269895e-01    +4.470963269895e-01    +4.470963269895e-01    +4.470963269895e-01    +4.470963269895e-01    +4.470963269895e-01    +4.470963269895e-01    +4.470963269895e-01    +4.470963269895e-01    +4.470963269895e-01    +4.470963269895e-01    +4.470963269895e-01    +4.470963269895e-01    +4.664645575129e-01    +1.600000000000e+00    +5.180476604323e-01    +4.567042704106e-01    +4.620509305019e-01    +4.191103348834e-01    +4.191103348834e-01    +4.191103348834e-01    +4.191103348834e-01    +4.191103348834e-01    +4.191103348834e-01    +4.191103348834e-01    +4.191103348834e-01    +4.191103348834e-01    +4.191103348834e-01    +4.191103348834e-01    +4.191103348834e-01    +4.191103348834e-01    +4.191103348834e-01    +4.191103348834e-01    +5.389057009447e-01    +1.600000000000e+00    +1.600000000000e+00    +7.087407257012e-01    +6.564167056597e-01    +1.600000000000e+00    +1.600000000000e+00    +5.962423862520e-01    +1.600000000000e+00    +7.840962485542e-01    +1.600000000000e+00    +1.600000000000e+00    +5.110688648771e-01    +7.086585941294e-01    +6.428189632170e-01    +1.600000000000e+00    +1.600000000000e+00    +5.305384317320e-01    +5.776343842289e-01    +1.600000000000e+00    +6.748586083420e-01    +1.600000000000e+00    +6.950479111144e-01    +5.110075927282e-01    +1.600000000000e+00    +5.142251506894e-01    +6.047943193057e-01    +1.600000000000e+00    +1.600000000000e+00    +6.189010252161e-01    +1.600000000000e+00    +1.600000000000e+00    +1.600000000000e+00    +5.034507662476e-01    +1.600000000000e+00    +1.600000000000e+00    +1.600000000000e+00    +7.737994164685e-01    +1.600000000000e+00    +6.037394519237e-01    +6.859384877949e-01    +1.600000000000e+00    +1.600000000000e+00    +5.104068196040e-01    +1.600000000000e+00    +5.827701312304e-01    +1.600000000000e+00    +5.354035351082e-01    +5.633319119050e-01    +1.600000000000e+00    +1.600000000000e+00    +1.600000000000e+00    +5.143704234701e-01    +6.141882861791e-01    +1.600000000000e+00    +5.390996967671e-01    +5.620224822501e-01    +1.600000000000e+00    +1.600000000000e+00    +4.812356980976e-01    +1.600000000000e+00    +1.600000000000e+00    +1.600000000000e+00    +6.624515328154e-01    +4.627313053886e-01    +1.600000000000e+00    +1.600000000000e+00    +6.904516735296e-01    +6.382952856423e-01    +1.600000000000e+00    +1.600000000000e+00    +1.600000000000e+00    +1.600000000000e+00    +1.600000000000e+00    +5.153958154590e-01    +6.164718068177e-01    +1.600000000000e+00    +1.600000000000e+00    +1.600000000000e+00    +5.102920765173e-01    +1.600000000000e+00    +6.192239082500e-01    +6.631026890966e-01    +6.857421019648e-01    +4.191103348834e-01    +4.191103348834e-01    +4.191103348834e-01    +4.191103348834e-01    +4.191103348834e-01    +4.191103348834e-01    +4.191103348834e-01    +4.191103348834e-01    +4.191103348834e-01    +4.191103348834e-01    +4.191103348834e-01    +4.191103348834e-01    +4.191103348834e-01    +4.191103348834e-01    +4.987252639031e-01    +1.600000000000e+00    +1.600000000000e+00    +5.402631212316e-01    +6.577280968487e-01    +1.600000000000e+00    +4.941621515201e-01    +6.636333023471e-01    +6.725681693423e-01    +5.111353570196e-01    +5.071863611010e-01    +4.811715583796e-01    +6.198940826985e-01    +6.208602618232e-01    +5.077799681252e-01    +4.972446594551e-01    +6.409262716247e-01    +5.477270895816e-01    +5.882000164507e-01    +5.064319145249e-01    +6.425422607510e-01    +5.152550907353e-01    +5.788681713267e-01    +5.132805568363e-01    +6.171928813296e-01    +5.632092858531e-01    +1.600000000000e+00    +4.407111217887e-01    +4.778018930539e-01    +5.201066295746e-01    +5.414599679595e-01    +1.600000000000e+00    +6.305780280751e-01    +5.350440801566e-01    +5.916736518383e-01    +6.234826075436e-01    +4.217072111573e-01    +6.429514057036e-01    +6.022234916756e-01    +5.611137793940e-01    +5.104194990451e-01    +5.321858848907e-01    +5.419336357456e-01    +4.733654661819e-01    +5.191801422696e-01    +5.200806103495e-01    +4.784935397919e-01    +1.600000000000e+00    +6.138669842887e-01    +5.066185025545e-01    +4.395256002227e-01    +6.127180117745e-01    +5.078394176210e-01    +5.669154956968e-01    +5.100986317446e-01    +6.735821047767e-01    +1.600000000000e+00    +5.259914007586e-01    +5.147708771148e-01    +1.600000000000e+00    +1.600000000000e+00    +6.383995063859e-01    +6.692845018095e-01    +5.294002063792e-01    +1.600000000000e+00    +6.459852822501e-01    +5.202604145074e-01    +5.952504969403e-01    +4.897482219476e-01    +5.194477707177e-01    +5.044885918449e-01    +1.600000000000e+00    +1.600000000000e+00    +4.787960263858e-01    +5.325821504847e-01    +6.263761658998e-01    +6.782186155090e-01    +4.963139384985e-01    +5.079574521602e-01    +4.604687534839e-01    +4.622871714081e-01    +1.600000000000e+00    +4.839016152442e-01    +6.180387761876e-01    +4.191103348834e-01    +4.191103348834e-01    +4.191103348834e-01    +4.191103348834e-01    +4.191103348834e-01    +4.191103348834e-01    +4.191103348834e-01    +4.191103348834e-01    +4.191103348834e-01    +4.191103348834e-01    +4.191103348834e-01    +4.191103348834e-01    +4.191103348834e-01    +4.191103348834e-01    +6.224300386551e-01    +4.917895124383e-01    +6.253475469350e-01    +4.710412618049e-01    +4.979363795291e-01    +4.381206177492e-01    +4.799585485917e-01    +5.550249368002e-01    +4.896316130325e-01    +4.406628346038e-01    +5.414678054364e-01    +4.535050406114e-01    +5.102449627742e-01    +5.275056521360e-01    +5.508304291397e-01    +4.719416720388e-01    +5.252347086245e-01    +5.206952379211e-01    +4.758236613726e-01    +4.553372145426e-01    +5.092121101182e-01    +4.561429181741e-01    +5.199681562230e-01    +5.290339818428e-01    +5.355700270405e-01    +4.975319544344e-01    +5.261372583027e-01    +5.449222137681e-01    +5.510260270068e-01    +4.476408564775e-01    +4.916643308162e-01    +5.158713380252e-01    +4.717508979778e-01    +5.127019856950e-01    +5.236206508977e-01    +5.380657409192e-01    +6.162603068342e-01    +5.702904192942e-01    +5.021543681501e-01    +4.953072565794e-01    +4.503121498141e-01    +5.167135789494e-01    +5.390168985437e-01    +4.221203022941e-01    +5.669747166597e-01    +5.948134774529e-01    +5.244361840049e-01    +5.049149112469e-01    +4.768568559300e-01    +5.824014445759e-01    +4.472106635465e-01    +6.609190138322e-01    +6.212370695698e-01    +6.350556973428e-01    +4.810327823473e-01    +6.643887615483e-01    +5.075645311829e-01    +6.021586895162e-01    +5.098808289161e-01    +4.476163702782e-01    +5.034328856909e-01    +4.932328994112e-01    +4.272667686783e-01    +6.696153950930e-01    +5.620014549520e-01    +4.467033461313e-01    +5.196708470118e-01    +6.442202135466e-01    +6.560962219328e-01    +5.820148991149e-01    +6.031549987207e-01    +5.950088762472e-01    +4.944019357910e-01    +6.615252715586e-01    +6.687854303872e-01    +5.651585928882e-01    +4.951689421060e-01    +5.076831038024e-01    +5.581633154576e-01    +6.473935743138e-01    +6.534775008966e-01    +4.968819608692e-01    +4.952069882810e-01    +4.960332311609e-01    +4.191103348834e-01    +4.191103348834e-01    +4.191103348834e-01    +4.191103348834e-01    +4.191103348834e-01    +4.191103348834e-01    +4.191103348834e-01    +4.191103348834e-01    +4.191103348834e-01    +4.191103348834e-01    +4.191103348834e-01    +4.191103348834e-01    +4.191103348834e-01    +4.191103348834e-01    +5.164001980321e-01    +4.292068151868e-01    +6.364522794095e-01    +5.139658667013e-01    +6.052428901235e-01    +5.970873359813e-01    +5.253136026081e-01    +5.053741489791e-01    +4.878144958405e-01    +5.200523265213e-01    +5.101283530900e-01    +6.353732149919e-01    +6.417877639630e-01    +4.839242296428e-01    +5.963650893033e-01    +4.195463642713e-01    +4.921468148942e-01    +5.999392067186e-01    +6.132209495539e-01    +5.092930119516e-01    +5.460818134763e-01    +5.795793549423e-01    +5.009079486207e-01    +5.248539201546e-01    +6.355691402099e-01    +6.013966822066e-01    +5.953519046258e-01    +5.377184796949e-01    +5.119851718320e-01    +5.870657643064e-01    +5.030878856741e-01    +5.287986065114e-01    +5.547259636389e-01    +5.874963366076e-01    +5.731030211989e-01    +4.515569817683e-01    +4.920304298665e-01    +5.148785632247e-01    +6.320841570794e-01    +5.496317675203e-01    +5.112945191288e-01    +4.928943153903e-01    +5.216861792228e-01    +4.842873386330e-01    +5.947400151604e-01    +5.296123605355e-01    +5.119251426754e-01    +4.294971297316e-01    +6.012739989000e-01    +6.365969727344e-01    +6.280201862684e-01    +5.899201744945e-01    +4.656706683711e-01    +5.151323357924e-