 *** BFO optimization checkpointing file 01-May-2018
 *** (c) Ph. Toint and M. Porcelli
          tleedfcn2   objname     
                  0   maximize    
                  2   verbose     
 -9.99999990000e+24   ftarget     
 1.000000000000e-04   epsilon     
 0.000000000000e+00   bfgs_finish 
                  5   term_basis  
               1000   maxeval     
 1.91000000000e+02   neval       
 1.424800000000e+00   alpha       
 1.997000000000e-01   beta        
 2.359900000000e+00   gamma       
 1.000000000000e-04   eta         
 1.500000000000e+00   zeta        
                 11   inertia     
                  1   stype       
                 53   rseed       
 1.255000000000e+00   iota        
                  1   min1d       
 2.000000000000e+00   kappa       
 1.000000000000e-01   lambda      
 5.000000000000e+01   mu          
                  0   used_trained
                 56   n           
 cccccccccccccccccccccccccccccccccccccccccccccccccccccccc   xtype       
                  0   use_lattice 
                  0   categorical 
           bfo_none   ssfname     
                191   nfcalls     
 +2.799133651738e-01    +3.999927783545e-01    +3.484542389001e-01    +4.054810729496e-01    +4.068517641587e-01    +3.302307822312e-01    +3.651985889604e-01    +4.505673697031e-01    +3.912644111769e-01    +4.335465702774e-01    +3.017606662197e-01    +3.193774573274e-01    +4.930119747273e-01    +3.443608931183e-01    +3.700664746875e-01    NaN    NaN    NaN    +4.830285013777e-01    NaN    NaN    +4.595426295623e-01    +4.345392347848e-01    NaN    +2.279298152876e-01    +3.901954215026e-01    +4.391182503880e-01    +3.581725993159e-01    +3.862225783728e-01    +3.147887978527e-01    +3.392955044920e-01    +3.511660710857e-01    +3.332825524170e-01    +3.321948108447e-01    +2.516827426681e-01    +3.032706792401e-01    +4.099599764813e-01    +2.780952271690e-01    +3.427919037570e-01    NaN    NaN    NaN    +3.586197217808e-01    NaN    NaN    +3.496994630163e-01    +3.823905216907e-01    NaN    +3.512615020534e-01    +3.408969990077e-01    +4.180468760436e-01    NaN    NaN    +3.465622587380e-01    NaN    NaN    NaN    NaN    NaN    NaN    NaN    NaN    NaN    NaN    NaN    NaN    +2.279298152876e-01    NaN    +2.743299123717e-01    +2.279298152876e-01    +2.279298152876e-01    +2.279298152876e-01    +2.279298152876e-01    +2.279298152876e-01    +2.279298152876e-01    +3.860529688511e-01    +2.956870709174e-01    NaN    +2.743299123717e-01    NaN    +3.864799107299e-01    +2.279298152876e-01    +2.279298152876e-01    +2.279298152876e-01    +2.279298152876e-01    +2.279298152876e-01    +2.279298152876e-01    NaN    NaN    NaN    NaN    NaN    NaN    NaN    NaN    NaN    NaN    +4.647250854219e-01    NaN    NaN    NaN    NaN    NaN    NaN    NaN    +3.752879338883e-01    +3.980924532958e-01    NaN    NaN    +3.695189272786e-01    NaN    NaN    NaN    +4.166087978746e-01    NaN    NaN    NaN    NaN    +4.406236727922e-01    NaN    NaN    +2.279298152876e-01    +2.279298152876e-01    +2.279298152876e-01    +2.279298152876e-01    +2.279298152876e-01    +2.279298152876e-01    +2.279298152876e-01    +2.279298152876e-01    +2.279298152876e-01    +2.279298152876e-01    +2.279298152876e-01    +2.279298152876e-01    +2.279298152876e-01    +2.279298152876e-01    +2.306348506075e-01    +2.791411149170e-01    +2.772538071946e-01    +2.734537191064e-01    +2.575707447516e-01    +2.705472282018e-01    +2.305155508591e-01    +2.477677994865e-01    +2.565393633552e-01    +2.790057611009e-01    +2.546084583397e-01    +2.687722328985e-01    +2.770499771882e-01    NaN    +2.801520042136e-01    +2.865653187931e-01    +2.771042983300e-01    +2.582586829623e-01    +2.741009346607e-01    +3.153792217057e-01    NaN    +3.413019120227e-01    +3.349578525122e-01    +2.821941279911e-01    +2.501880843866e-01    +2.843224232718e-01    +3.104227928064e-01    +2.279298152876e-01    +2.698696590438e-01    +2.420748103559e-01    +2.279298152876e-01    +2.279298152876e-01    +2.706368290590e-01    +2.660835195232e-01    +2.440142085091e-01    +2.449218768558e-01    +2.500545063210e-01    +2.450541492593e-01    +2.279298152876e-01    +2.279298152876e-01    +2.279298152876e-01    +2.279298152876e-01    +2.623738827558e-01    +2.359172562775e-01    +2.698696590438e-01    +2.420748103559e-01    NaN    +2.510986821045e-01    +2.279298152876e-01    +2.279298152876e-01    +2.279298152876e-01    +2.279298152876e-01    +2.279298152876e-01    +2.279298152876e-01    +2.500545063210e-01    +2.450541492593e-01   
+5.000000000000e-05   +5.000000000000e-05   +5.000000000000e-05   +5.000000000000e-05   +5.000000000000e-05   +5.000000000000e-05   +5.000000000000e-05   +5.000000000000e-05   +5.000000000000e-05   +5.000000000000e-05   +5.000000000000e-05   +5.000000000000e-05   +5.000000000000e-05   +5.000000000000e-05   +5.000000000000e-05   +5.000000000000e-05   +5.000000000000e-05   +5.000000000000e-05   +5.000000000000e-05   +5.000000000000e-05   +5.000000000000e-05   +5.000000000000e-05   +5.000000000000e-05   +5.000000000000e-05   +5.000000000000e-05   +5.000000000000e-05   +5.000000000000e-05   +5.000000000000e-05   +5.000000000000e-05   +5.000000000000e-05   +5.000000000000e-05   +5.000000000000e-05   +5.000000000000e-05   +5.000000000000e-05   +5.000000000000e-05   +5.000000000000e-05   +5.000000000000e-05   +5.000000000000e-05   +5.000000000000e-05   +5.000000000000e-05   +5.000000000000e-05   +5.000000000000e-05   +5.000000000000e-05   +5.000000000000e-05   +5.000000000000e-05   +5.000000000000e-05   +5.000000000000e-05   +5.000000000000e-05   +5.000000000000e-05   +5.000000000000e-05   +5.000000000000e-05   +5.000000000000e-05   +5.000000000000e-05   +5.000000000000e-05   +5.000000000000e-05   +5.000000000000e-05   
+1.036800000000e+00   +1.036800000000e+00   +1.036800000000e+00   +1.036800000000e+00   +1.036800000000e+00   +1.036800000000e+00   +1.036800000000e+00   +1.036800000000e+00   +1.036800000000e+00   +1.036800000000e+00   +1.036800000000e+00   +1.036800000000e+00   +1.036800000000e+00   +1.036800000000e+00   +1.036800000000e+00   +1.036800000000e+00   +1.036800000000e+00   +1.036800000000e+00   +1.036800000000e+00   +1.036800000000e+00   +1.036800000000e+00   +1.036800000000e+00   +1.036800000000e+00   +1.036800000000e+00   +1.036800000000e+00   +1.036800000000e+00   +1.036800000000e+00   +1.036800000000e+00   +1.036800000000e+00   +1.036800000000e+00   +1.036800000000e+00   +1.036800000000e+00   +1.036800000000e+00   +1.036800000000e+00   +1.036800000000e+00   +1.036800000000e+00   +1.036800000000e+00   +1.036800000000e+00   +1.036800000000e+00   +1.036800000000e+00   +1.036800000000e+00   +1.036800000000e+00   +1.036800000000e+00   +1.036800000000e+00   +1.036800000000e+00   +1.036800000000e+00   +1.036800000000e+00   +1.036800000000e+00   +1.036800000000e+00   +1.036800000000e+00   +1.036800000000e+00   +1.036800000000e+00   +1.036800000000e+00   +1.036800000000e+00   +1.036800000000e+00   +1.036800000000e+00   
+1.000000000000e+00   +1.000000000000e+00   +1.000000000000e+00   +1.000000000000e+00   +1.000000000000e+00   +1.000000000000e+00   +1.000000000000e+00   +1.000000000000e+00   +1.000000000000e+00   +1.000000000000e+00   +1.000000000000e+00   +1.000000000000e+00   +1.000000000000e+00   +1.000000000000e+00   +1.000000000000e+00   +1.000000000000e+00   +1.000000000000e+00   +1.000000000000e+00   +1.000000000000e+00   +1.000000000000e+00   +1.000000000000e+00   +1.000000000000e+00   +1.000000000000e+00   +1.000000000000e+00   +1.000000000000e+00   +1.000000000000e+00   +1.000000000000e+00   +1.000000000000e+00   +1.000000000000e+00   +1.000000000000e+00   +1.000000000000e+00   +1.000000000000e+00   +1.000000000000e+00   +1.000000000000e+00   +1.000000000000e+00   +1.000000000000e+00   +1.000000000000e+00   +1.000000000000e+00   +1.000000000000e+00   +1.000000000000e+00   +1.000000000000e+00   +1.000000000000e+00   +1.000000000000e+00   +1.000000000000e+00   +1.000000000000e+00   +1.000000000000e+00   +1.000000000000e+00   +1.000000000000e+00   +1.000000000000e+00   +1.000000000000e+00   +1.000000000000e+00   +1.000000000000e+00   +1.000000000000e+00   +1.000000000000e+00   +1.000000000000e+00   +1.000000000000e+00   
+1.000000000000e+00   +1.000000000000e+00   +1.000000000000e+00   +1.000000000000e+00   +1.000000000000e+00   +1.000000000000e+00   +1.000000000000e+00   +1.000000000000e+00   +1.000000000000e+00   +1.000000000000e+00   +1.000000000000e+00   +1.000000000000e+00   +1.000000000000e+00   +1.000000000000e+00   +1.000000000000e+00   +1.000000000000e+00   +1.000000000000e+00   +1.000000000000e+00   +1.000000000000e+00   +1.000000000000e+00   +1.000000000000e+00   +1.000000000000e+00   +1.000000000000e+00   +1.000000000000e+00   +1.000000000000e+00   +1.000000000000e+00   +1.000000000000e+00   +1.000000000000e+00   +1.000000000000e+00   +1.000000000000e+00   +1.000000000000e+00   +1.000000000000e+00   +1.000000000000e+00   +1.000000000000e+00   +1.000000000000e+00   +1.000000000000e+00   +1.000000000000e+00   +1.000000000000e+00   +1.000000000000e+00   +1.000000000000e+00   +1.000000000000e+00   +1.000000000000e+00   +1.000000000000e+00   +1.000000000000e+00   +1.000000000000e+00   +1.000000000000e+00   +1.000000000000e+00   +1.000000000000e+00   +1.000000000000e+00   +1.000000000000e+00   +1.000000000000e+00   +1.000000000000e+00   +1.000000000000e+00   +1.000000000000e+00   +1.000000000000e+00   +1.000000000000e+00   
+1.000000000000e+00   +1.000000000000e+00   +1.000000000000e+00   +1.000000000000e+00   +1.000000000000e+00   +1.000000000000e+00   +1.000000000000e+00   +1.000000000000e+00   +1.000000000000e+00   +1.000000000000e+00   +1.000000000000e+00   +1.000000000000e+00   +1.000000000000e+00   +1.000000000000e+00   -2.813550000000e+00   -2.691150000000e+00   -2.710050000000e+00   -8.861000000000e-01   -2.528000000000e-01   -5.461000000000e-01   -4.310000000000e-01   -3.126000000000e-01   +8.556000000000e-01   +8.675000000000e-01   +8.689000000000e-01   +8.733500000000e-01   +8.875500000000e-01   +8.948500000000e-01   -5.000000000000e-01   +1.557050000000e+00   +1.502350000000e+00   +3.112500000000e+00   -6.093150000000e+00   +6.276000000000e-01   +1.836900000000e+00   -6.436050000000e+00   +2.519900000000e+00   -5.000000000000e-01   +2.517750000000e+00   +1.235150000000e+00   +1.272250000000e+00   +1.218550000000e+00   -5.000000000000e-01   -5.000000000000e-01   -4.507050000000e+00   +6.456500000000e-01   +3.112500000000e+00   +6.276000000000e-01   +6.062500000000e-01   +1.854650000000e+00   -5.000000000000e-01   -5.000000000000e-01   +2.517750000000e+00   +2.520100000000e+00   -5.000000000000e-01   +1.218550000000e+00   
+2.000000000000e+00   +2.000000000000e+00   +2.000000000000e+00   +2.000000000000e+00   +2.000000000000e+00   +2.000000000000e+00   +2.000000000000e+00   +2.000000000000e+00   +2.000000000000e+00   +2.000000000000e+00   +2.000000000000e+00   +2.000000000000e+00   +2.000000000000e+00   +2.000000000000e+00   -9.378500000000e-01   -8.970500000000e-01   -9.033500000000e-01   +1.139000000000e-01   +7.472000000000e-01   +4.539000000000e-01   +5.690000000000e-01   +6.874000000000e-01   +2.566800000000e+00   +2.602500000000e+00   +2.606700000000e+00   +2.620050000000e+00   +2.662650000000e+00   +2.684550000000e+00   +5.000000000000e-01   +4.671150000000e+00   +4.507050000000e+00   +9.337500000000e+00   -2.031050000000e+00   +1.882800000000e+00   +5.510700000000e+00   -2.145350000000e+00   +7.559700000000e+00   +5.000000000000e-01   +7.553250000000e+00   +3.705450000000e+00   +3.816750000000e+00   +3.655650000000e+00   +5.000000000000e-01   +5.000000000000e-01   -1.502350000000e+00   +1.936950000000e+00   +9.337500000000e+00   +1.882800000000e+00   +1.818750000000e+00   +5.563950000000e+00   +5.000000000000e-01   +5.000000000000e-01   +7.553250000000e+00   +7.560300000000e+00   +5.000000000000e-01   +3.655650000000e+00   
                  1   nh          
+1.000000000000e+00   +1.000000000000e+00   +1.000000000000e+00   +1.000000000000e+00   +1.000000000000e+00   +2.000000000000e+00   +2.000000000000e+00   +2.000000000000e+00   +2.000000000000e+00   +2.000000000000e+00   +2.000000000000e+00   +2.000000000000e+00   +2.000000000000e+00   +2.000000000000e+00   -1.875700000000e+00   -1.794100000000e+00   -1.806700000000e+00   -3.861000000000e-01   -2.528000000000e-01   -4.610000000000e-02   +6.900000000000e-02   +1.874000000000e-01   +1.711200000000e+00   +1.735000000000e+00   +1.737800000000e+00   +1.746700000000e+00   +1.775100000000e+00   +1.789700000000e+00   +0.000000000000e+00   +3.114100000000e+00   +3.004700000000e+00   +6.225000000000e+00   -4.062100000000e+00   +1.255200000000e+00   +3.673800000000e+00   -4.290700000000e+00   +5.039800000000e+00   +0.000000000000e+00   +5.035500000000e+00   +2.470300000000e+00   +2.544500000000e+00   +2.437100000000e+00   +0.000000000000e+00   +0.000000000000e+00   -3.004700000000e+00   +1.291300000000e+00   +6.225000000000e+00   +1.255200000000e+00   +1.212500000000e+00   +3.709300000000e+00   +0.000000000000e+00   +0.000000000000e+00   +5.035500000000e+00   +5.040200000000e+00   +0.000000000000e+00   +2.437100000000e+00   
+2.279298152876e-01   +5.000000000000e-05   +5.000000000000e-05   +5.000000000000e-05   +5.000000000000e-05   +5.000000000000e-05   +5.000000000000e-05   +5.000000000000e-05   +5.000000000000e-05   +5.000000000000e-05   +5.000000000000e-05   +5.000000000000e-05   +5.000000000000e-05   +5.000000000000e-05   +5.000000000000e-05   +5.000000000000e-05   +5.000000000000e-05   +5.000000000000e-05   +5.000000000000e-05   +5.000000000000e-05   +5.000000000000e-05   +5.000000000000e-05   +5.000000000000e-05   +5.000000000000e-05   +5.000000000000e-05   +5.000000000000e-05   +5.000000000000e-05   +5.000000000000e-05   +5.000000000000e-05   +5.000000000000e-05   +5.000000000000e-05   +5.000000000000e-05   +5.000000000000e-05   +5.000000000000e-05   +5.000000000000e-05   +5.000000000000e-05   +5.000000000000e-05   +5.000000000000e-05   +5.000000000000e-05   +5.000000000000e-05   +5.000000000000e-05   +5.000000000000e-05   +5.000000000000e-05   +5.000000000000e-05   +5.000000000000e-05   +5.000000000000e-05   +5.000000000000e-05   +5.000000000000e-05   +5.000000000000e-05   +5.000000000000e-05   +5.000000000000e-05   +5.000000000000e-05   +5.000000000000e-05   +5.000000000000e-05   +5.000000000000e-05   +5.000000000000e-05   +5.000000000000e-05   
                  0    training history length
                  0   fstar length
                  0   tpval length
