 *** BFO optimization checkpointing file 26-May-2018
 *** (c) Ph. Toint and M. Porcelli
           tleedfcn   objname     
                  0   maximize    
                  2   verbose     
 -9.99999990000e+24   ftarget     
 1.000000000000e-04   epsilon     
 0.000000000000e+00   bfgs_finish 
                  5   term_basis  
               2000   maxeval     
 9.00000000000e+01   neval       
 1.424800000000e+00   alpha       
 1.997000000000e-01   beta        
 2.359900000000e+00   gamma       
 1.000000000000e-04   eta         
 1.500000000000e+00   zeta        
                 11   inertia     
                  1   stype       
                 53   rseed       
 1.255000000000e+00   iota        
                  1   min1d       
 2.000000000000e+00   kappa       
 1.000000000000e-01   lambda      
 5.000000000000e+01   mu          
                  0   used_trained
                 42   n           
 cccccccccccccccccccccccccccccccccccccccccc   xtype       
                  0   use_lattice 
                  0   categorical 
           bfo_none   ssfname     
                 90   nfcalls     
 +2.557122729482e-01    +2.557122729482e-01    +2.557122729482e-01    +2.557122729482e-01    +2.557122729482e-01    +2.557122729482e-01    +2.557122729482e-01    +2.557122729482e-01    +2.557122729482e-01    +2.557122729482e-01    +2.557122729482e-01    +2.557122729482e-01    +2.557122729482e-01    +2.557122729482e-01    +2.557122729482e-01    +2.557122729482e-01    +2.557122729482e-01    +2.557122729482e-01    +2.557122729482e-01    +2.557122729482e-01    +2.557122729482e-01    +2.557122729482e-01    +2.557122729482e-01    +2.557122729482e-01    +2.557122729482e-01    +2.557122729482e-01    +2.557122729482e-01    +2.557122729482e-01    +2.557122729482e-01    +2.557122729482e-01    +2.557122729482e-01    +2.557122729482e-01    +2.557122729482e-01    +2.557122729482e-01    +2.557122729482e-01    +2.557122729482e-01    +2.557122729482e-01    +2.557122729482e-01    +2.557122729482e-01    +2.557122729482e-01    +2.557122729482e-01    +2.557122729482e-01    +2.557122729482e-01    +2.557122729482e-01    +2.557122729482e-01    +2.557122729482e-01    +2.557122729482e-01    +2.557122729482e-01    +2.557122729482e-01    +2.557122729482e-01    +2.557122729482e-01    +2.557122729482e-01    +2.557122729482e-01    +2.557122729482e-01    +2.557122729482e-01    +2.557122729482e-01    +2.557122729482e-01    +2.557122729482e-01    +2.557122729482e-01    +2.557122729482e-01    +2.557122729482e-01    +2.557122729482e-01    +2.557122729482e-01    +2.557122729482e-01    +2.557122729482e-01    +2.557122729482e-01    +2.557122729482e-01    +2.557122729482e-01    +2.557122729482e-01    +2.557122729482e-01    +2.557122729482e-01    +2.557122729482e-01    +2.557122729482e-01    +2.557122729482e-01    +2.557122729482e-01    +2.557122729482e-01    +2.557122729482e-01    +2.557122729482e-01    +2.557122729482e-01    +2.557122729482e-01    +2.557122729482e-01    +2.557122729482e-01    +2.557122729482e-01    +2.557122729482e-01    +2.557122729482e-01    +2.557122729482e-01    +2.557122729482e-01    +2.557122729482e-01    +2.557122729482e-01    +2.557122729482e-01   
+2.070489600000e-01   +2.070489600000e-01   +2.070489600000e-01   +2.070489600000e-01   +2.070489600000e-01   +2.070489600000e-01   +2.070489600000e-01   +2.070489600000e-01   +2.070489600000e-01   +2.070489600000e-01   +2.070489600000e-01   +2.070489600000e-01   +2.070489600000e-01   +2.070489600000e-01   +2.070489600000e-01   +2.070489600000e-01   +2.070489600000e-01   +2.070489600000e-01   +2.070489600000e-01   +2.070489600000e-01   +2.070489600000e-01   +2.070489600000e-01   +2.070489600000e-01   +2.070489600000e-01   +2.070489600000e-01   +2.070489600000e-01   +2.070489600000e-01   +2.070489600000e-01   +2.070489600000e-01   +2.070489600000e-01   +2.070489600000e-01   +2.070489600000e-01   +2.070489600000e-01   +2.070489600000e-01   +2.070489600000e-01   +2.070489600000e-01   +2.070489600000e-01   +2.070489600000e-01   +2.070489600000e-01   +2.070489600000e-01   +2.070489600000e-01   +2.070489600000e-01   
+1.036800000000e+00   +1.036800000000e+00   +1.036800000000e+00   +1.036800000000e+00   +1.036800000000e+00   +1.036800000000e+00   +1.036800000000e+00   +1.036800000000e+00   +1.036800000000e+00   +1.036800000000e+00   +1.036800000000e+00   +1.036800000000e+00   +1.036800000000e+00   +1.036800000000e+00   +1.036800000000e+00   +1.036800000000e+00   +1.036800000000e+00   +1.036800000000e+00   +1.036800000000e+00   +1.036800000000e+00   +1.036800000000e+00   +1.036800000000e+00   +1.036800000000e+00   +1.036800000000e+00   +1.036800000000e+00   +1.036800000000e+00   +1.036800000000e+00   +1.036800000000e+00   +1.036800000000e+00   +1.036800000000e+00   +1.036800000000e+00   +1.036800000000e+00   +1.036800000000e+00   +1.036800000000e+00   +1.036800000000e+00   +1.036800000000e+00   +1.036800000000e+00   +1.036800000000e+00   +1.036800000000e+00   +1.036800000000e+00   +1.036800000000e+00   +1.036800000000e+00   
+1.000000000000e+00   +1.000000000000e+00   +1.000000000000e+00   +1.000000000000e+00   +1.000000000000e+00   +1.000000000000e+00   +1.000000000000e+00   +1.000000000000e+00   +1.000000000000e+00   +1.000000000000e+00   +1.000000000000e+00   +1.000000000000e+00   +1.000000000000e+00   +1.000000000000e+00   +1.000000000000e+00   +1.000000000000e+00   +1.000000000000e+00   +1.000000000000e+00   +1.000000000000e+00   +1.000000000000e+00   +1.000000000000e+00   +1.000000000000e+00   +1.000000000000e+00   +1.000000000000e+00   +1.000000000000e+00   +1.000000000000e+00   +1.000000000000e+00   +1.000000000000e+00   +1.000000000000e+00   +1.000000000000e+00   +1.000000000000e+00   +1.000000000000e+00   +1.000000000000e+00   +1.000000000000e+00   +1.000000000000e+00   +1.000000000000e+00   +1.000000000000e+00   +1.000000000000e+00   +1.000000000000e+00   +1.000000000000e+00   +1.000000000000e+00   +1.000000000000e+00   
+1.000000000000e+00   +1.000000000000e+00   +1.000000000000e+00   +1.000000000000e+00   +1.000000000000e+00   +1.000000000000e+00   +1.000000000000e+00   +1.000000000000e+00   +1.000000000000e+00   +1.000000000000e+00   +1.000000000000e+00   +1.000000000000e+00   +1.000000000000e+00   +1.000000000000e+00   +1.000000000000e+00   +1.000000000000e+00   +1.000000000000e+00   +1.000000000000e+00   +1.000000000000e+00   +1.000000000000e+00   +1.000000000000e+00   +1.000000000000e+00   +1.000000000000e+00   +1.000000000000e+00   +1.000000000000e+00   +1.000000000000e+00   +1.000000000000e+00   +1.000000000000e+00   +1.000000000000e+00   +1.000000000000e+00   +1.000000000000e+00   +1.000000000000e+00   +1.000000000000e+00   +1.000000000000e+00   +1.000000000000e+00   +1.000000000000e+00   +1.000000000000e+00   +1.000000000000e+00   +1.000000000000e+00   +1.000000000000e+00   +1.000000000000e+00   +1.000000000000e+00   
-4.015287399600e+00   -3.427156497000e+00   -3.585951020800e+00   -1.450614581600e+00   -1.172227120700e+00   -1.022937398900e+00   -1.029975967200e+00   -6.786414299000e-01   +0.000000000000e+00   +0.000000000000e+00   +0.000000000000e+00   +0.000000000000e+00   +0.000000000000e+00   +0.000000000000e+00   -1.033059888000e+00   +0.000000000000e+00   +0.000000000000e+00   +0.000000000000e+00   +0.000000000000e+00   +0.000000000000e+00   +0.000000000000e+00   +0.000000000000e+00   +0.000000000000e+00   -1.120131481500e+00   +0.000000000000e+00   +0.000000000000e+00   +0.000000000000e+00   +0.000000000000e+00   -1.014966774400e+00   +0.000000000000e+00   -1.007933022300e+00   +0.000000000000e+00   +0.000000000000e+00   +0.000000000000e+00   +0.000000000000e+00   +0.000000000000e+00   -9.964120361000e-01   -1.062753122000e+00   +0.000000000000e+00   +0.000000000000e+00   -1.020369048000e+00   +0.000000000000e+00   
+0.000000000000e+00   +0.000000000000e+00   +0.000000000000e+00   +5.493854184000e-01   +8.277728793000e-01   +9.770626011000e-01   +9.700240328000e-01   +1.321358570100e+00   +3.480300407000e+00   +3.765783411600e+00   +3.703205602600e+00   +3.356572283000e+00   +3.291812791000e+00   +3.564814744800e+00   +9.669401120000e-01   +5.840674472200e+00   +6.327753932800e+00   +1.274769809420e+01   +1.234070482100e+01   +2.341048367200e+00   +7.298332694400e+00   +7.551204829200e+00   +9.908760525200e+00   +8.798685185000e-01   +1.004702611440e+01   +1.006734119700e+01   +5.186059111200e+00   +4.755101819400e+00   +9.850332256000e-01   +5.922449613800e+00   +9.920669777000e-01   +2.889630453200e+00   +7.754503428200e+00   +2.240927465200e+00   +2.518876624000e+00   +7.237886611400e+00   +1.003587963900e+00   +9.372468780000e-01   +1.017807959080e+01   +5.051176703400e+00   +9.796309520000e-01   +4.463335063800e+00   
                  1   nh          
-2.007643699800e+00   -1.713578248500e+00   -1.792975510400e+00   -4.506145816000e-01   -1.722271207000e-01   -2.293739890000e-02   -2.997596720000e-02   +3.213585701000e-01   +1.740150203500e+00   +1.882891705800e+00   +1.851602801300e+00   +1.678286141500e+00   +1.645906395500e+00   +1.782407372400e+00   -3.305988800000e-02   +2.920337236100e+00   +3.163876966400e+00   +6.373849047100e+00   +6.170352410500e+00   +1.170524183600e+00   +3.649166347200e+00   +3.775602414600e+00   +4.954380262600e+00   -1.201314815000e-01   +5.023513057200e+00   +5.033670598500e+00   +2.593029555600e+00   +2.377550909700e+00   -1.496677440000e-02   +2.961224806900e+00   -7.933022300000e-03   +1.444815226600e+00   +3.877251714100e+00   +1.120463732600e+00   +1.259438312000e+00   +3.618943305700e+00   +3.587963900000e-03   -6.275312200000e-02   +5.089039795400e+00   +2.525588351700e+00   -2.036904800000e-02   +2.231667531900e+00   
+2.557122729482e-01   +2.070489600000e-01   +2.070489600000e-01   +2.070489600000e-01   +2.070489600000e-01   +2.070489600000e-01   +2.070489600000e-01   +2.070489600000e-01   +2.070489600000e-01   +2.070489600000e-01   +2.070489600000e-01   +2.070489600000e-01   +2.070489600000e-01   +2.070489600000e-01   +2.070489600000e-01   +2.070489600000e-01   +2.070489600000e-01   +2.070489600000e-01   +2.070489600000e-01   +2.070489600000e-01   +2.070489600000e-01   +2.070489600000e-01   +2.070489600000e-01   +2.070489600000e-01   +2.070489600000e-01   +2.070489600000e-01   +2.070489600000e-01   +2.070489600000e-01   +2.070489600000e-01   +2.070489600000e-01   +2.070489600000e-01   +2.070489600000e-01   +2.070489600000e-01   +2.070489600000e-01   +2.070489600000e-01   +2.070489600000e-01   +2.070489600000e-01   +2.070489600000e-01   +2.070489600000e-01   +2.070489600000e-01   +2.070489600000e-01   +2.070489600000e-01   +2.070489600000e-01   
                  0    training history length
                  0   fstar length
                  0   tpval length
