 *** BFO optimization checkpointing file 26-May-2018
 *** (c) Ph. Toint and M. Porcelli
          tleedfcn2   objname     
                  0   maximize    
                  2   verbose     
 -9.99999990000e+24   ftarget     
 1.000000000000e-04   epsilon     
 0.000000000000e+00   bfgs_finish 
                  5   term_basis  
               2000   maxeval     
 2.20000000000e+02   neval       
 1.424800000000e+00   alpha       
 1.997000000000e-01   beta        
 2.359900000000e+00   gamma       
 1.000000000000e-04   eta         
 1.500000000000e+00   zeta        
                 11   inertia     
                  1   stype       
                 53   rseed       
 1.255000000000e+00   iota        
                  1   min1d       
 2.000000000000e+00   kappa       
 1.000000000000e-01   lambda      
 5.000000000000e+01   mu          
                  0   used_trained
                 56   n           
 cccccccccccccccccccccccccccccccccccccccccccccccccccccccc   xtype       
                  0   use_lattice 
                  0   categorical 
           bfo_none   ssfname     
                220   nfcalls     
 +2.385899408418e-01    +2.385899408418e-01    +2.385899408418e-01    +2.385899408418e-01    +2.385899408418e-01    +2.385899408418e-01    +2.385899408418e-01    +2.385899408418e-01    +2.385899408418e-01    +2.385899408418e-01    +2.385899408418e-01    +2.385899408418e-01    +2.385899408418e-01    +2.385899408418e-01    +2.385899408418e-01    +2.385899408418e-01    +2.385899408418e-01    +2.385899408418e-01    +2.385899408418e-01    +2.385899408418e-01    +2.385899408418e-01    +2.385899408418e-01    +2.385899408418e-01    +2.385899408418e-01    +2.385899408418e-01    +2.385899408418e-01    +2.385899408418e-01    +2.385899408418e-01    +2.385899408418e-01    +2.385899408418e-01    +2.385899408418e-01    +2.385899408418e-01    +2.385899408418e-01    +2.385899408418e-01    +2.385899408418e-01    +2.385899408418e-01    +2.385899408418e-01    +2.385899408418e-01    +2.385899408418e-01    +2.385899408418e-01    +2.385899408418e-01    +2.385899408418e-01    +2.385899408418e-01    +2.385899408418e-01    +2.385899408418e-01    +2.385899408418e-01    +2.385899408418e-01    +2.385899408418e-01    +2.385899408418e-01    +2.385899408418e-01    +2.385899408418e-01    +2.385899408418e-01    +2.385899408418e-01    +2.385899408418e-01    +2.385899408418e-01    +2.385899408418e-01    +2.385899408418e-01    +2.385899408418e-01    +2.385899408418e-01    +2.385899408418e-01    +2.385899408418e-01    +2.385899408418e-01    +2.385899408418e-01    +2.385899408418e-01    +2.385899408418e-01    +2.385899408418e-01    +2.385899408418e-01    +2.385899408418e-01    +2.385899408418e-01    +2.385899408418e-01    +2.385899408418e-01    +2.385899408418e-01    +2.385899408418e-01    +2.385899408418e-01    +2.385899408418e-01    +2.385899408418e-01    +2.385899408418e-01    +2.385899408418e-01    +2.385899408418e-01    +2.385899408418e-01    +2.385899408418e-01    +2.385899408418e-01    +2.385899408418e-01    +2.385899408418e-01    +2.385899408418e-01    +2.385899408418e-01    +2.385899408418e-01    +2.385899408418e-01    +2.385899408418e-01    +2.385899408418e-01    +2.385899408418e-01    +2.385899408418e-01    +2.385899408418e-01    +2.385899408418e-01    +2.385899408418e-01    +2.385899408418e-01    +2.385899408418e-01    +2.385899408418e-01    +2.385899408418e-01    +2.385899408418e-01    +2.385899408418e-01    +2.385899408418e-01    +2.385899408418e-01    +2.385899408418e-01    +2.385899408418e-01    +2.385899408418e-01    +2.385899408418e-01    +2.385899408418e-01    +2.385899408418e-01    +2.385899408418e-01    +2.385899408418e-01    +2.385899408418e-01    +2.385899408418e-01    +2.385899408418e-01    +2.385899408418e-01    +2.385899408418e-01    +2.385899408418e-01    +2.385899408418e-01    +2.385899408418e-01    +2.385899408418e-01    +2.385899408418e-01    +2.385899408418e-01    +2.385899408418e-01    +2.385899408418e-01    +2.385899408418e-01    +2.385899408418e-01    +2.385899408418e-01    +2.385899408418e-01    +2.385899408418e-01    +2.385899408418e-01    +2.385899408418e-01    +2.385899408418e-01    +2.385899408418e-01    +2.385899408418e-01    +2.385899408418e-01    +2.385899408418e-01    +2.385899408418e-01    +2.385899408418e-01    +2.385899408418e-01    +2.385899408418e-01    +2.385899408418e-01    +2.385899408418e-01    +2.385899408418e-01    +2.385899408418e-01    +2.385899408418e-01    +2.385899408418e-01    +2.385899408418e-01    +2.385899408418e-01    +2.385899408418e-01    +2.385899408418e-01    +2.385899408418e-01    +2.385899408418e-01    +2.385899408418e-01    +2.385899408418e-01    +2.385899408418e-01    +2.385899408418e-01    +2.385899408418e-01    +2.385899408418e-01    +2.385899408418e-01    +2.385899408418e-01    +2.385899408418e-01    +2.385899408418e-01    +2.385899408418e-01    +2.385899408418e-01    +2.385899408418e-01    +2.385899408418e-01    +2.385899408418e-01    +2.385899408418e-01    +2.385899408418e-01    +2.385899408418e-01    +2.385899408418e-01    +2.385899408418e-01    +2.385899408418e-01    +2.385899408418e-01    +2.385899408418e-01    +2.385899408418e-01    +2.385899408418e-01    +2.385899408418e-01    +2.385899408418e-01    +2.385899408418e-01    +2.385899408418e-01    +2.385899408418e-01    +2.385899408418e-01    +2.385899408418e-01    +2.385899408418e-01    +2.385899408418e-01    +2.385899408418e-01    +2.385899408418e-01    +2.385899408418e-01    +2.385899408418e-01    +2.385899408418e-01    +2.385899408418e-01    +2.385899408418e-01    +2.385899408418e-01    +2.385899408418e-01    +2.385899408418e-01    +2.385899408418e-01    +2.385899408418e-01    +2.385899408418e-01    +2.385899408418e-01    +2.385899408418e-01    +2.385899408418e-01    +2.385899408418e-01    +2.385899408418e-01    +2.385899408418e-01    +2.385899408418e-01    +2.385899408418e-01    +2.385899408418e-01    +2.385899408418e-01    +2.385899408418e-01    +2.385899408418e-01    +2.385899408418e-01    +2.385899408418e-01    +2.385899408418e-01    +2.385899408418e-01    +2.385899408418e-01    +2.385899408418e-01    +2.385899408418e-01    +2.385899408418e-01    +2.385899408418e-01   
+1.648949092494e-03   +1.648949092494e-03   +1.648949092494e-03   +1.648949092494e-03   +1.648949092494e-03   +1.648949092494e-03   +1.648949092494e-03   +1.648949092494e-03   +1.648949092494e-03   +1.648949092494e-03   +1.648949092494e-03   +1.648949092494e-03   +1.648949092494e-03   +1.648949092494e-03   +1.648949092494e-03   +1.648949092494e-03   +1.648949092494e-03   +1.648949092494e-03   +1.648949092494e-03   +1.648949092494e-03   +1.648949092494e-03   +1.648949092494e-03   +1.648949092494e-03   +1.648949092494e-03   +1.648949092494e-03   +1.648949092494e-03   +1.648949092494e-03   +1.648949092494e-03   +1.648949092494e-03   +1.648949092494e-03   +1.648949092494e-03   +1.648949092494e-03   +1.648949092494e-03   +1.648949092494e-03   +1.648949092494e-03   +1.648949092494e-03   +1.648949092494e-03   +1.648949092494e-03   +1.648949092494e-03   +1.648949092494e-03   +1.648949092494e-03   +1.648949092494e-03   +1.648949092494e-03   +1.648949092494e-03   +1.648949092494e-03   +1.648949092494e-03   +1.648949092494e-03   +1.648949092494e-03   +1.648949092494e-03   +1.648949092494e-03   +1.648949092494e-03   +1.648949092494e-03   +1.648949092494e-03   +1.648949092494e-03   +1.648949092494e-03   +1.648949092494e-03   
+1.036800000000e+00   +1.036800000000e+00   +1.036800000000e+00   +1.036800000000e+00   +1.036800000000e+00   +1.036800000000e+00   +1.036800000000e+00   +1.036800000000e+00   +1.036800000000e+00   +1.036800000000e+00   +1.036800000000e+00   +1.036800000000e+00   +1.036800000000e+00   +1.036800000000e+00   +1.036800000000e+00   +1.036800000000e+00   +1.036800000000e+00   +1.036800000000e+00   +1.036800000000e+00   +1.036800000000e+00   +1.036800000000e+00   +1.036800000000e+00   +1.036800000000e+00   +1.036800000000e+00   +1.036800000000e+00   +1.036800000000e+00   +1.036800000000e+00   +1.036800000000e+00   +1.036800000000e+00   +1.036800000000e+00   +1.036800000000e+00   +1.036800000000e+00   +1.036800000000e+00   +1.036800000000e+00   +1.036800000000e+00   +1.036800000000e+00   +1.036800000000e+00   +1.036800000000e+00   +1.036800000000e+00   +1.036800000000e+00   +1.036800000000e+00   +1.036800000000e+00   +1.036800000000e+00   +1.036800000000e+00   +1.036800000000e+00   +1.036800000000e+00   +1.036800000000e+00   +1.036800000000e+00   +1.036800000000e+00   +1.036800000000e+00   +1.036800000000e+00   +1.036800000000e+00   +1.036800000000e+00   +1.036800000000e+00   +1.036800000000e+00   +1.036800000000e+00   
+1.000000000000e+00   +1.000000000000e+00   +1.000000000000e+00   +1.000000000000e+00   +1.000000000000e+00   +1.000000000000e+00   +1.000000000000e+00   +1.000000000000e+00   +1.000000000000e+00   +1.000000000000e+00   +1.000000000000e+00   +1.000000000000e+00   +1.000000000000e+00   +1.000000000000e+00   +1.000000000000e+00   +1.000000000000e+00   +1.000000000000e+00   +1.000000000000e+00   +1.000000000000e+00   +1.000000000000e+00   +1.000000000000e+00   +1.000000000000e+00   +1.000000000000e+00   +1.000000000000e+00   +1.000000000000e+00   +1.000000000000e+00   +1.000000000000e+00   +1.000000000000e+00   +1.000000000000e+00   +1.000000000000e+00   +1.000000000000e+00   +1.000000000000e+00   +1.000000000000e+00   +1.000000000000e+00   +1.000000000000e+00   +1.000000000000e+00   +1.000000000000e+00   +1.000000000000e+00   +1.000000000000e+00   +1.000000000000e+00   +1.000000000000e+00   +1.000000000000e+00   +1.000000000000e+00   +1.000000000000e+00   +1.000000000000e+00   +1.000000000000e+00   +1.000000000000e+00   +1.000000000000e+00   +1.000000000000e+00   +1.000000000000e+00   +1.000000000000e+00   +1.000000000000e+00   +1.000000000000e+00   +1.000000000000e+00   +1.000000000000e+00   +1.000000000000e+00   
+1.000000000000e+00   +1.000000000000e+00   +1.000000000000e+00   +1.000000000000e+00   +1.000000000000e+00   +1.000000000000e+00   +1.000000000000e+00   +1.000000000000e+00   +1.000000000000e+00   +1.000000000000e+00   +1.000000000000e+00   +1.000000000000e+00   +1.000000000000e+00   +1.000000000000e+00   +1.000000000000e+00   +1.000000000000e+00   +1.000000000000e+00   +1.000000000000e+00   +1.000000000000e+00   +1.000000000000e+00   +1.000000000000e+00   +1.000000000000e+00   +1.000000000000e+00   +1.000000000000e+00   +1.000000000000e+00   +1.000000000000e+00   +1.000000000000e+00   +1.000000000000e+00   +1.000000000000e+00   +1.000000000000e+00   +1.000000000000e+00   +1.000000000000e+00   +1.000000000000e+00   +1.000000000000e+00   +1.000000000000e+00   +1.000000000000e+00   +1.000000000000e+00   +1.000000000000e+00   +1.000000000000e+00   +1.000000000000e+00   +1.000000000000e+00   +1.000000000000e+00   +1.000000000000e+00   +1.000000000000e+00   +1.000000000000e+00   +1.000000000000e+00   +1.000000000000e+00   +1.000000000000e+00   +1.000000000000e+00   +1.000000000000e+00   +1.000000000000e+00   +1.000000000000e+00   +1.000000000000e+00   +1.000000000000e+00   +1.000000000000e+00   +1.000000000000e+00   
+1.000000000000e+00   +1.000000000000e+00   +1.000000000000e+00   +1.000000000000e+00   +1.000000000000e+00   +1.000000000000e+00   +1.000000000000e+00   +1.000000000000e+00   +1.000000000000e+00   +1.000000000000e+00   +1.000000000000e+00   +1.000000000000e+00   +1.000000000000e+00   +1.000000000000e+00   -2.989200000000e+00   -3.050200000000e+00   -2.825000000000e+00   -1.146800000000e+00   -9.165000000000e-01   -8.690000000000e-01   -5.963000000000e-01   -6.051000000000e-01   +0.000000000000e+00   +0.000000000000e+00   +0.000000000000e+00   +0.000000000000e+00   +0.000000000000e+00   +0.000000000000e+00   -7.847000000000e-01   +0.000000000000e+00   +0.000000000000e+00   +0.000000000000e+00   +0.000000000000e+00   +0.000000000000e+00   +0.000000000000e+00   +0.000000000000e+00   +0.000000000000e+00   -8.939000000000e-01   +0.000000000000e+00   +0.000000000000e+00   +0.000000000000e+00   +0.000000000000e+00   -7.705000000000e-01   +0.000000000000e+00   -8.422000000000e-01   +0.000000000000e+00   +0.000000000000e+00   +0.000000000000e+00   +0.000000000000e+00   +0.000000000000e+00   -9.808000000000e-01   -6.648000000000e-01   +0.000000000000e+00   +0.000000000000e+00   -8.238000000000e-01   +0.000000000000e+00   
+2.000000000000e+00   +2.000000000000e+00   +2.000000000000e+00   +2.000000000000e+00   +2.000000000000e+00   +2.000000000000e+00   +2.000000000000e+00   +2.000000000000e+00   +2.000000000000e+00   +2.000000000000e+00   +2.000000000000e+00   +2.000000000000e+00   +2.000000000000e+00   +2.000000000000e+00   +0.000000000000e+00   +0.000000000000e+00   +0.000000000000e+00   +8.532000000000e-01   +1.083500000000e+00   +1.131000000000e+00   +1.403700000000e+00   +1.394900000000e+00   +3.440200000000e+00   +3.770800000000e+00   +4.194400000000e+00   +3.836600000000e+00   +3.709800000000e+00   +3.821800000000e+00   +1.215300000000e+00   +6.737600000000e+00   +6.648400000000e+00   +1.269540000000e+01   +1.247760000000e+01   +3.082600000000e+00   +7.962600000000e+00   +7.466200000000e+00   +1.058120000000e+01   +1.106100000000e+00   +1.032080000000e+01   +1.049860000000e+01   +5.416000000000e+00   +5.588600000000e+00   +1.229500000000e+00   +6.463800000000e+00   +1.157800000000e+00   +3.135800000000e+00   +8.331200000000e+00   +2.785000000000e+00   +2.901000000000e+00   +7.637800000000e+00   +1.019200000000e+00   +1.335200000000e+00   +1.015300000000e+01   +5.523200000000e+00   +1.176200000000e+00   +5.672000000000e+00   
                  1   nh          
+1.000000000000e+00   +1.000000000000e+00   +1.000000000000e+00   +1.000000000000e+00   +1.000000000000e+00   +2.000000000000e+00   +2.000000000000e+00   +2.000000000000e+00   +2.000000000000e+00   +2.000000000000e+00   +2.000000000000e+00   +2.000000000000e+00   +2.000000000000e+00   +2.000000000000e+00   -1.494600000000e+00   -1.525100000000e+00   -1.412500000000e+00   -1.468000000000e-01   +8.350000000000e-02   +1.310000000000e-01   +4.037000000000e-01   +3.949000000000e-01   +1.720100000000e+00   +1.885400000000e+00   +2.097200000000e+00   +1.918300000000e+00   +1.854900000000e+00   +1.910900000000e+00   +2.153000000000e-01   +3.368800000000e+00   +3.324200000000e+00   +6.347700000000e+00   +6.238800000000e+00   +1.541300000000e+00   +3.981300000000e+00   +3.733100000000e+00   +5.290600000000e+00   +1.061000000000e-01   +5.160400000000e+00   +5.249300000000e+00   +2.708000000000e+00   +2.794300000000e+00   +2.295000000000e-01   +3.231900000000e+00   +1.578000000000e-01   +1.567900000000e+00   +4.165600000000e+00   +1.392500000000e+00   +1.450500000000e+00   +3.818900000000e+00   +1.920000000000e-02   +3.352000000000e-01   +5.076500000000e+00   +2.761600000000e+00   +1.762000000000e-01   +2.836000000000e+00   
+2.385899408418e-01   +1.648949092494e-03   +1.648949092494e-03   +1.648949092494e-03   +1.648949092494e-03   +1.648949092494e-03   +1.648949092494e-03   +1.648949092494e-03   +1.648949092494e-03   +1.648949092494e-03   +1.648949092494e-03   +1.648949092494e-03   +1.648949092494e-03   +1.648949092494e-03   +1.648949092494e-03   +1.648949092494e-03   +1.648949092494e-03   +1.648949092494e-03   +1.648949092494e-03   +1.648949092494e-03   +1.648949092494e-03   +1.648949092494e-03   +1.648949092494e-03   +1.648949092494e-03   +1.648949092494e-03   +1.648949092494e-03   +1.648949092494e-03   +1.648949092494e-03   +1.648949092494e-03   +1.648949092494e-03   +1.648949092494e-03   +1.648949092494e-03   +1.648949092494e-03   +1.648949092494e-03   +1.648949092494e-03   +1.648949092494e-03   +1.648949092494e-03   +1.648949092494e-03   +1.648949092494e-03   +1.648949092494e-03   +1.648949092494e-03   +1.648949092494e-03   +1.648949092494e-03   +1.648949092494e-03   +1.648949092494e-03   +1.648949092494e-03   +1.648949092494e-03   +1.648949092494e-03   +1.648949092494e-03   +1.648949092494e-03   +1.648949092494e-03   +1.648949092494e-03   +1.648949092494e-03   +1.648949092494e-03   +1.648949092494e-03   +1.648949092494e-03   +1.648949092494e-03   
                  0    training history length
                  0   fstar length
                  0   tpval length
